LAMMPS Description

     648  atoms
     432  bonds
     216  angles
     0  dihedrals
     0  impropers

     2  atom types
     3  bond types
     3  angle types
     5  dihedral types

  0.0 36.0 xlo xhi
  0.0 36.0 ylo yhi
  0.0 36.0 zlo zhi

Masses

    1 15.035 #C3 "N-Alkane CH3- (UA)" 6 partial charge=0.0
    2 14.027 #C2 "Alkanes -CH2- (UA)" 6 partial charge=0.0

Atoms # full

1 1 1 0.0 1.252 1.985 2.024
2 1 2 0.0 2.558 2.42 1.722
3 1 1 0.0 2.716 3.404 2.137
4 2 1 0.0 7.252 1.985 2.024
5 2 2 0.0 8.558 2.42 1.722
6 2 1 0.0 8.716 3.404 2.137
7 3 1 0.0 13.252 1.985 2.024
8 3 2 0.0 14.558 2.42 1.722
9 3 1 0.0 14.716 3.404 2.137
10 4 1 0.0 19.252 1.985 2.024
11 4 2 0.0 20.558 2.42 1.722
12 4 1 0.0 20.716 3.404 2.137
13 5 1 0.0 25.252 1.985 2.024
14 5 2 0.0 26.558 2.42 1.722
15 5 1 0.0 26.716 3.404 2.137
16 6 1 0.0 31.252 1.985 2.024
17 6 2 0.0 32.558 2.42 1.722
18 6 1 0.0 32.716 3.404 2.137
19 7 1 0.0 1.252 7.985 2.024
20 7 2 0.0 2.558 8.42 1.722
21 7 1 0.0 2.716 9.404 2.137
22 8 1 0.0 7.252 7.985 2.024
23 8 2 0.0 8.558 8.42 1.722
24 8 1 0.0 8.716 9.404 2.137
25 9 1 0.0 13.252 7.985 2.024
26 9 2 0.0 14.558 8.42 1.722
27 9 1 0.0 14.716 9.404 2.137
28 10 1 0.0 19.252 7.985 2.024
29 10 2 0.0 20.558 8.42 1.722
30 10 1 0.0 20.716 9.404 2.137
31 11 1 0.0 25.252 7.985 2.024
32 11 2 0.0 26.558 8.42 1.722
33 11 1 0.0 26.716 9.404 2.137
34 12 1 0.0 31.252 7.985 2.024
35 12 2 0.0 32.558 8.42 1.722
36 12 1 0.0 32.716 9.404 2.137
37 13 1 0.0 1.252 13.985 2.024
38 13 2 0.0 2.558 14.42 1.722
39 13 1 0.0 2.716 15.404 2.137
40 14 1 0.0 7.252 13.985 2.024
41 14 2 0.0 8.558 14.42 1.722
42 14 1 0.0 8.716 15.404 2.137
43 15 1 0.0 13.252 13.985 2.024
44 15 2 0.0 14.558 14.42 1.722
45 15 1 0.0 14.716 15.404 2.137
46 16 1 0.0 19.252 13.985 2.024
47 16 2 0.0 20.558 14.42 1.722
48 16 1 0.0 20.716 15.404 2.137
49 17 1 0.0 25.252 13.985 2.024
50 17 2 0.0 26.558 14.42 1.722
51 17 1 0.0 26.716 15.404 2.137
52 18 1 0.0 31.252 13.985 2.024
53 18 2 0.0 32.558 14.42 1.722
54 18 1 0.0 32.716 15.404 2.137
55 19 1 0.0 1.252 19.985 2.024
56 19 2 0.0 2.558 20.42 1.722
57 19 1 0.0 2.716 21.404 2.137
58 20 1 0.0 7.252 19.985 2.024
59 20 2 0.0 8.558 20.42 1.722
60 20 1 0.0 8.716 21.404 2.137
61 21 1 0.0 13.252 19.985 2.024
62 21 2 0.0 14.558 20.42 1.722
63 21 1 0.0 14.716 21.404 2.137
64 22 1 0.0 19.252 19.985 2.024
65 22 2 0.0 20.558 20.42 1.722
66 22 1 0.0 20.716 21.404 2.137
67 23 1 0.0 25.252 19.985 2.024
68 23 2 0.0 26.558 20.42 1.722
69 23 1 0.0 26.716 21.404 2.137
70 24 1 0.0 31.252 19.985 2.024
71 24 2 0.0 32.558 20.42 1.722
72 24 1 0.0 32.716 21.404 2.137
73 25 1 0.0 1.252 25.985 2.024
74 25 2 0.0 2.558 26.42 1.722
75 25 1 0.0 2.716 27.404 2.137
76 26 1 0.0 7.252 25.985 2.024
77 26 2 0.0 8.558 26.42 1.722
78 26 1 0.0 8.716 27.404 2.137
79 27 1 0.0 13.252 25.985 2.024
80 27 2 0.0 14.558 26.42 1.722
81 27 1 0.0 14.716 27.404 2.137
82 28 1 0.0 19.252 25.985 2.024
83 28 2 0.0 20.558 26.42 1.722
84 28 1 0.0 20.716 27.404 2.137
85 29 1 0.0 25.252 25.985 2.024
86 29 2 0.0 26.558 26.42 1.722
87 29 1 0.0 26.716 27.404 2.137
88 30 1 0.0 31.252 25.985 2.024
89 30 2 0.0 32.558 26.42 1.722
90 30 1 0.0 32.716 27.404 2.137
91 31 1 0.0 1.252 31.985 2.024
92 31 2 0.0 2.558 32.42 1.722
93 31 1 0.0 2.716 33.403999999999996 2.137
94 32 1 0.0 7.252 31.985 2.024
95 32 2 0.0 8.558 32.42 1.722
96 32 1 0.0 8.716 33.403999999999996 2.137
97 33 1 0.0 13.252 31.985 2.024
98 33 2 0.0 14.558 32.42 1.722
99 33 1 0.0 14.716 33.403999999999996 2.137
100 34 1 0.0 19.252 31.985 2.024
101 34 2 0.0 20.558 32.42 1.722
102 34 1 0.0 20.716 33.403999999999996 2.137
103 35 1 0.0 25.252 31.985 2.024
104 35 2 0.0 26.558 32.42 1.722
105 35 1 0.0 26.716 33.403999999999996 2.137
106 36 1 0.0 31.252 31.985 2.024
107 36 2 0.0 32.558 32.42 1.722
108 36 1 0.0 32.716 33.403999999999996 2.137
109 37 1 0.0 1.252 1.985 8.024
110 37 2 0.0 2.558 2.42 7.7219999999999995
111 37 1 0.0 2.716 3.404 8.137
112 38 1 0.0 7.252 1.985 8.024
113 38 2 0.0 8.558 2.42 7.7219999999999995
114 38 1 0.0 8.716 3.404 8.137
115 39 1 0.0 13.252 1.985 8.024
116 39 2 0.0 14.558 2.42 7.7219999999999995
117 39 1 0.0 14.716 3.404 8.137
118 40 1 0.0 19.252 1.985 8.024
119 40 2 0.0 20.558 2.42 7.7219999999999995
120 40 1 0.0 20.716 3.404 8.137
121 41 1 0.0 25.252 1.985 8.024
122 41 2 0.0 26.558 2.42 7.7219999999999995
123 41 1 0.0 26.716 3.404 8.137
124 42 1 0.0 31.252 1.985 8.024
125 42 2 0.0 32.558 2.42 7.7219999999999995
126 42 1 0.0 32.716 3.404 8.137
127 43 1 0.0 1.252 7.985 8.024
128 43 2 0.0 2.558 8.42 7.7219999999999995
129 43 1 0.0 2.716 9.404 8.137
130 44 1 0.0 7.252 7.985 8.024
131 44 2 0.0 8.558 8.42 7.7219999999999995
132 44 1 0.0 8.716 9.404 8.137
133 45 1 0.0 13.252 7.985 8.024
134 45 2 0.0 14.558 8.42 7.7219999999999995
135 45 1 0.0 14.716 9.404 8.137
136 46 1 0.0 19.252 7.985 8.024
137 46 2 0.0 20.558 8.42 7.7219999999999995
138 46 1 0.0 20.716 9.404 8.137
139 47 1 0.0 25.252 7.985 8.024
140 47 2 0.0 26.558 8.42 7.7219999999999995
141 47 1 0.0 26.716 9.404 8.137
142 48 1 0.0 31.252 7.985 8.024
143 48 2 0.0 32.558 8.42 7.7219999999999995
144 48 1 0.0 32.716 9.404 8.137
145 49 1 0.0 1.252 13.985 8.024
146 49 2 0.0 2.558 14.42 7.7219999999999995
147 49 1 0.0 2.716 15.404 8.137
148 50 1 0.0 7.252 13.985 8.024
149 50 2 0.0 8.558 14.42 7.7219999999999995
150 50 1 0.0 8.716 15.404 8.137
151 51 1 0.0 13.252 13.985 8.024
152 51 2 0.0 14.558 14.42 7.7219999999999995
153 51 1 0.0 14.716 15.404 8.137
154 52 1 0.0 19.252 13.985 8.024
155 52 2 0.0 20.558 14.42 7.7219999999999995
156 52 1 0.0 20.716 15.404 8.137
157 53 1 0.0 25.252 13.985 8.024
158 53 2 0.0 26.558 14.42 7.7219999999999995
159 53 1 0.0 26.716 15.404 8.137
160 54 1 0.0 31.252 13.985 8.024
161 54 2 0.0 32.558 14.42 7.7219999999999995
162 54 1 0.0 32.716 15.404 8.137
163 55 1 0.0 1.252 19.985 8.024
164 55 2 0.0 2.558 20.42 7.7219999999999995
165 55 1 0.0 2.716 21.404 8.137
166 56 1 0.0 7.252 19.985 8.024
167 56 2 0.0 8.558 20.42 7.7219999999999995
168 56 1 0.0 8.716 21.404 8.137
169 57 1 0.0 13.252 19.985 8.024
170 57 2 0.0 14.558 20.42 7.7219999999999995
171 57 1 0.0 14.716 21.404 8.137
172 58 1 0.0 19.252 19.985 8.024
173 58 2 0.0 20.558 20.42 7.7219999999999995
174 58 1 0.0 20.716 21.404 8.137
175 59 1 0.0 25.252 19.985 8.024
176 59 2 0.0 26.558 20.42 7.7219999999999995
177 59 1 0.0 26.716 21.404 8.137
178 60 1 0.0 31.252 19.985 8.024
179 60 2 0.0 32.558 20.42 7.7219999999999995
180 60 1 0.0 32.716 21.404 8.137
181 61 1 0.0 1.252 25.985 8.024
182 61 2 0.0 2.558 26.42 7.7219999999999995
183 61 1 0.0 2.716 27.404 8.137
184 62 1 0.0 7.252 25.985 8.024
185 62 2 0.0 8.558 26.42 7.7219999999999995
186 62 1 0.0 8.716 27.404 8.137
187 63 1 0.0 13.252 25.985 8.024
188 63 2 0.0 14.558 26.42 7.7219999999999995
189 63 1 0.0 14.716 27.404 8.137
190 64 1 0.0 19.252 25.985 8.024
191 64 2 0.0 20.558 26.42 7.7219999999999995
192 64 1 0.0 20.716 27.404 8.137
193 65 1 0.0 25.252 25.985 8.024
194 65 2 0.0 26.558 26.42 7.7219999999999995
195 65 1 0.0 26.716 27.404 8.137
196 66 1 0.0 31.252 25.985 8.024
197 66 2 0.0 32.558 26.42 7.7219999999999995
198 66 1 0.0 32.716 27.404 8.137
199 67 1 0.0 1.252 31.985 8.024
200 67 2 0.0 2.558 32.42 7.7219999999999995
201 67 1 0.0 2.716 33.403999999999996 8.137
202 68 1 0.0 7.252 31.985 8.024
203 68 2 0.0 8.558 32.42 7.7219999999999995
204 68 1 0.0 8.716 33.403999999999996 8.137
205 69 1 0.0 13.252 31.985 8.024
206 69 2 0.0 14.558 32.42 7.7219999999999995
207 69 1 0.0 14.716 33.403999999999996 8.137
208 70 1 0.0 19.252 31.985 8.024
209 70 2 0.0 20.558 32.42 7.7219999999999995
210 70 1 0.0 20.716 33.403999999999996 8.137
211 71 1 0.0 25.252 31.985 8.024
212 71 2 0.0 26.558 32.42 7.7219999999999995
213 71 1 0.0 26.716 33.403999999999996 8.137
214 72 1 0.0 31.252 31.985 8.024
215 72 2 0.0 32.558 32.42 7.7219999999999995
216 72 1 0.0 32.716 33.403999999999996 8.137
217 73 1 0.0 1.252 1.985 14.024
218 73 2 0.0 2.558 2.42 13.722
219 73 1 0.0 2.716 3.404 14.137
220 74 1 0.0 7.252 1.985 14.024
221 74 2 0.0 8.558 2.42 13.722
222 74 1 0.0 8.716 3.404 14.137
223 75 1 0.0 13.252 1.985 14.024
224 75 2 0.0 14.558 2.42 13.722
225 75 1 0.0 14.716 3.404 14.137
226 76 1 0.0 19.252 1.985 14.024
227 76 2 0.0 20.558 2.42 13.722
228 76 1 0.0 20.716 3.404 14.137
229 77 1 0.0 25.252 1.985 14.024
230 77 2 0.0 26.558 2.42 13.722
231 77 1 0.0 26.716 3.404 14.137
232 78 1 0.0 31.252 1.985 14.024
233 78 2 0.0 32.558 2.42 13.722
234 78 1 0.0 32.716 3.404 14.137
235 79 1 0.0 1.252 7.985 14.024
236 79 2 0.0 2.558 8.42 13.722
237 79 1 0.0 2.716 9.404 14.137
238 80 1 0.0 7.252 7.985 14.024
239 80 2 0.0 8.558 8.42 13.722
240 80 1 0.0 8.716 9.404 14.137
241 81 1 0.0 13.252 7.985 14.024
242 81 2 0.0 14.558 8.42 13.722
243 81 1 0.0 14.716 9.404 14.137
244 82 1 0.0 19.252 7.985 14.024
245 82 2 0.0 20.558 8.42 13.722
246 82 1 0.0 20.716 9.404 14.137
247 83 1 0.0 25.252 7.985 14.024
248 83 2 0.0 26.558 8.42 13.722
249 83 1 0.0 26.716 9.404 14.137
250 84 1 0.0 31.252 7.985 14.024
251 84 2 0.0 32.558 8.42 13.722
252 84 1 0.0 32.716 9.404 14.137
253 85 1 0.0 1.252 13.985 14.024
254 85 2 0.0 2.558 14.42 13.722
255 85 1 0.0 2.716 15.404 14.137
256 86 1 0.0 7.252 13.985 14.024
257 86 2 0.0 8.558 14.42 13.722
258 86 1 0.0 8.716 15.404 14.137
259 87 1 0.0 13.252 13.985 14.024
260 87 2 0.0 14.558 14.42 13.722
261 87 1 0.0 14.716 15.404 14.137
262 88 1 0.0 19.252 13.985 14.024
263 88 2 0.0 20.558 14.42 13.722
264 88 1 0.0 20.716 15.404 14.137
265 89 1 0.0 25.252 13.985 14.024
266 89 2 0.0 26.558 14.42 13.722
267 89 1 0.0 26.716 15.404 14.137
268 90 1 0.0 31.252 13.985 14.024
269 90 2 0.0 32.558 14.42 13.722
270 90 1 0.0 32.716 15.404 14.137
271 91 1 0.0 1.252 19.985 14.024
272 91 2 0.0 2.558 20.42 13.722
273 91 1 0.0 2.716 21.404 14.137
274 92 1 0.0 7.252 19.985 14.024
275 92 2 0.0 8.558 20.42 13.722
276 92 1 0.0 8.716 21.404 14.137
277 93 1 0.0 13.252 19.985 14.024
278 93 2 0.0 14.558 20.42 13.722
279 93 1 0.0 14.716 21.404 14.137
280 94 1 0.0 19.252 19.985 14.024
281 94 2 0.0 20.558 20.42 13.722
282 94 1 0.0 20.716 21.404 14.137
283 95 1 0.0 25.252 19.985 14.024
284 95 2 0.0 26.558 20.42 13.722
285 95 1 0.0 26.716 21.404 14.137
286 96 1 0.0 31.252 19.985 14.024
287 96 2 0.0 32.558 20.42 13.722
288 96 1 0.0 32.716 21.404 14.137
289 97 1 0.0 1.252 25.985 14.024
290 97 2 0.0 2.558 26.42 13.722
291 97 1 0.0 2.716 27.404 14.137
292 98 1 0.0 7.252 25.985 14.024
293 98 2 0.0 8.558 26.42 13.722
294 98 1 0.0 8.716 27.404 14.137
295 99 1 0.0 13.252 25.985 14.024
296 99 2 0.0 14.558 26.42 13.722
297 99 1 0.0 14.716 27.404 14.137
298 100 1 0.0 19.252 25.985 14.024
299 100 2 0.0 20.558 26.42 13.722
300 100 1 0.0 20.716 27.404 14.137
301 101 1 0.0 25.252 25.985 14.024
302 101 2 0.0 26.558 26.42 13.722
303 101 1 0.0 26.716 27.404 14.137
304 102 1 0.0 31.252 25.985 14.024
305 102 2 0.0 32.558 26.42 13.722
306 102 1 0.0 32.716 27.404 14.137
307 103 1 0.0 1.252 31.985 14.024
308 103 2 0.0 2.558 32.42 13.722
309 103 1 0.0 2.716 33.403999999999996 14.137
310 104 1 0.0 7.252 31.985 14.024
311 104 2 0.0 8.558 32.42 13.722
312 104 1 0.0 8.716 33.403999999999996 14.137
313 105 1 0.0 13.252 31.985 14.024
314 105 2 0.0 14.558 32.42 13.722
315 105 1 0.0 14.716 33.403999999999996 14.137
316 106 1 0.0 19.252 31.985 14.024
317 106 2 0.0 20.558 32.42 13.722
318 106 1 0.0 20.716 33.403999999999996 14.137
319 107 1 0.0 25.252 31.985 14.024
320 107 2 0.0 26.558 32.42 13.722
321 107 1 0.0 26.716 33.403999999999996 14.137
322 108 1 0.0 31.252 31.985 14.024
323 108 2 0.0 32.558 32.42 13.722
324 108 1 0.0 32.716 33.403999999999996 14.137
325 109 1 0.0 1.252 1.985 20.024
326 109 2 0.0 2.558 2.42 19.722
327 109 1 0.0 2.716 3.404 20.137
328 110 1 0.0 7.252 1.985 20.024
329 110 2 0.0 8.558 2.42 19.722
330 110 1 0.0 8.716 3.404 20.137
331 111 1 0.0 13.252 1.985 20.024
332 111 2 0.0 14.558 2.42 19.722
333 111 1 0.0 14.716 3.404 20.137
334 112 1 0.0 19.252 1.985 20.024
335 112 2 0.0 20.558 2.42 19.722
336 112 1 0.0 20.716 3.404 20.137
337 113 1 0.0 25.252 1.985 20.024
338 113 2 0.0 26.558 2.42 19.722
339 113 1 0.0 26.716 3.404 20.137
340 114 1 0.0 31.252 1.985 20.024
341 114 2 0.0 32.558 2.42 19.722
342 114 1 0.0 32.716 3.404 20.137
343 115 1 0.0 1.252 7.985 20.024
344 115 2 0.0 2.558 8.42 19.722
345 115 1 0.0 2.716 9.404 20.137
346 116 1 0.0 7.252 7.985 20.024
347 116 2 0.0 8.558 8.42 19.722
348 116 1 0.0 8.716 9.404 20.137
349 117 1 0.0 13.252 7.985 20.024
350 117 2 0.0 14.558 8.42 19.722
351 117 1 0.0 14.716 9.404 20.137
352 118 1 0.0 19.252 7.985 20.024
353 118 2 0.0 20.558 8.42 19.722
354 118 1 0.0 20.716 9.404 20.137
355 119 1 0.0 25.252 7.985 20.024
356 119 2 0.0 26.558 8.42 19.722
357 119 1 0.0 26.716 9.404 20.137
358 120 1 0.0 31.252 7.985 20.024
359 120 2 0.0 32.558 8.42 19.722
360 120 1 0.0 32.716 9.404 20.137
361 121 1 0.0 1.252 13.985 20.024
362 121 2 0.0 2.558 14.42 19.722
363 121 1 0.0 2.716 15.404 20.137
364 122 1 0.0 7.252 13.985 20.024
365 122 2 0.0 8.558 14.42 19.722
366 122 1 0.0 8.716 15.404 20.137
367 123 1 0.0 13.252 13.985 20.024
368 123 2 0.0 14.558 14.42 19.722
369 123 1 0.0 14.716 15.404 20.137
370 124 1 0.0 19.252 13.985 20.024
371 124 2 0.0 20.558 14.42 19.722
372 124 1 0.0 20.716 15.404 20.137
373 125 1 0.0 25.252 13.985 20.024
374 125 2 0.0 26.558 14.42 19.722
375 125 1 0.0 26.716 15.404 20.137
376 126 1 0.0 31.252 13.985 20.024
377 126 2 0.0 32.558 14.42 19.722
378 126 1 0.0 32.716 15.404 20.137
379 127 1 0.0 1.252 19.985 20.024
380 127 2 0.0 2.558 20.42 19.722
381 127 1 0.0 2.716 21.404 20.137
382 128 1 0.0 7.252 19.985 20.024
383 128 2 0.0 8.558 20.42 19.722
384 128 1 0.0 8.716 21.404 20.137
385 129 1 0.0 13.252 19.985 20.024
386 129 2 0.0 14.558 20.42 19.722
387 129 1 0.0 14.716 21.404 20.137
388 130 1 0.0 19.252 19.985 20.024
389 130 2 0.0 20.558 20.42 19.722
390 130 1 0.0 20.716 21.404 20.137
391 131 1 0.0 25.252 19.985 20.024
392 131 2 0.0 26.558 20.42 19.722
393 131 1 0.0 26.716 21.404 20.137
394 132 1 0.0 31.252 19.985 20.024
395 132 2 0.0 32.558 20.42 19.722
396 132 1 0.0 32.716 21.404 20.137
397 133 1 0.0 1.252 25.985 20.024
398 133 2 0.0 2.558 26.42 19.722
399 133 1 0.0 2.716 27.404 20.137
400 134 1 0.0 7.252 25.985 20.024
401 134 2 0.0 8.558 26.42 19.722
402 134 1 0.0 8.716 27.404 20.137
403 135 1 0.0 13.252 25.985 20.024
404 135 2 0.0 14.558 26.42 19.722
405 135 1 0.0 14.716 27.404 20.137
406 136 1 0.0 19.252 25.985 20.024
407 136 2 0.0 20.558 26.42 19.722
408 136 1 0.0 20.716 27.404 20.137
409 137 1 0.0 25.252 25.985 20.024
410 137 2 0.0 26.558 26.42 19.722
411 137 1 0.0 26.716 27.404 20.137
412 138 1 0.0 31.252 25.985 20.024
413 138 2 0.0 32.558 26.42 19.722
414 138 1 0.0 32.716 27.404 20.137
415 139 1 0.0 1.252 31.985 20.024
416 139 2 0.0 2.558 32.42 19.722
417 139 1 0.0 2.716 33.403999999999996 20.137
418 140 1 0.0 7.252 31.985 20.024
419 140 2 0.0 8.558 32.42 19.722
420 140 1 0.0 8.716 33.403999999999996 20.137
421 141 1 0.0 13.252 31.985 20.024
422 141 2 0.0 14.558 32.42 19.722
423 141 1 0.0 14.716 33.403999999999996 20.137
424 142 1 0.0 19.252 31.985 20.024
425 142 2 0.0 20.558 32.42 19.722
426 142 1 0.0 20.716 33.403999999999996 20.137
427 143 1 0.0 25.252 31.985 20.024
428 143 2 0.0 26.558 32.42 19.722
429 143 1 0.0 26.716 33.403999999999996 20.137
430 144 1 0.0 31.252 31.985 20.024
431 144 2 0.0 32.558 32.42 19.722
432 144 1 0.0 32.716 33.403999999999996 20.137
433 145 1 0.0 1.252 1.985 26.024
434 145 2 0.0 2.558 2.42 25.722
435 145 1 0.0 2.716 3.404 26.137
436 146 1 0.0 7.252 1.985 26.024
437 146 2 0.0 8.558 2.42 25.722
438 146 1 0.0 8.716 3.404 26.137
439 147 1 0.0 13.252 1.985 26.024
440 147 2 0.0 14.558 2.42 25.722
441 147 1 0.0 14.716 3.404 26.137
442 148 1 0.0 19.252 1.985 26.024
443 148 2 0.0 20.558 2.42 25.722
444 148 1 0.0 20.716 3.404 26.137
445 149 1 0.0 25.252 1.985 26.024
446 149 2 0.0 26.558 2.42 25.722
447 149 1 0.0 26.716 3.404 26.137
448 150 1 0.0 31.252 1.985 26.024
449 150 2 0.0 32.558 2.42 25.722
450 150 1 0.0 32.716 3.404 26.137
451 151 1 0.0 1.252 7.985 26.024
452 151 2 0.0 2.558 8.42 25.722
453 151 1 0.0 2.716 9.404 26.137
454 152 1 0.0 7.252 7.985 26.024
455 152 2 0.0 8.558 8.42 25.722
456 152 1 0.0 8.716 9.404 26.137
457 153 1 0.0 13.252 7.985 26.024
458 153 2 0.0 14.558 8.42 25.722
459 153 1 0.0 14.716 9.404 26.137
460 154 1 0.0 19.252 7.985 26.024
461 154 2 0.0 20.558 8.42 25.722
462 154 1 0.0 20.716 9.404 26.137
463 155 1 0.0 25.252 7.985 26.024
464 155 2 0.0 26.558 8.42 25.722
465 155 1 0.0 26.716 9.404 26.137
466 156 1 0.0 31.252 7.985 26.024
467 156 2 0.0 32.558 8.42 25.722
468 156 1 0.0 32.716 9.404 26.137
469 157 1 0.0 1.252 13.985 26.024
470 157 2 0.0 2.558 14.42 25.722
471 157 1 0.0 2.716 15.404 26.137
472 158 1 0.0 7.252 13.985 26.024
473 158 2 0.0 8.558 14.42 25.722
474 158 1 0.0 8.716 15.404 26.137
475 159 1 0.0 13.252 13.985 26.024
476 159 2 0.0 14.558 14.42 25.722
477 159 1 0.0 14.716 15.404 26.137
478 160 1 0.0 19.252 13.985 26.024
479 160 2 0.0 20.558 14.42 25.722
480 160 1 0.0 20.716 15.404 26.137
481 161 1 0.0 25.252 13.985 26.024
482 161 2 0.0 26.558 14.42 25.722
483 161 1 0.0 26.716 15.404 26.137
484 162 1 0.0 31.252 13.985 26.024
485 162 2 0.0 32.558 14.42 25.722
486 162 1 0.0 32.716 15.404 26.137
487 163 1 0.0 1.252 19.985 26.024
488 163 2 0.0 2.558 20.42 25.722
489 163 1 0.0 2.716 21.404 26.137
490 164 1 0.0 7.252 19.985 26.024
491 164 2 0.0 8.558 20.42 25.722
492 164 1 0.0 8.716 21.404 26.137
493 165 1 0.0 13.252 19.985 26.024
494 165 2 0.0 14.558 20.42 25.722
495 165 1 0.0 14.716 21.404 26.137
496 166 1 0.0 19.252 19.985 26.024
497 166 2 0.0 20.558 20.42 25.722
498 166 1 0.0 20.716 21.404 26.137
499 167 1 0.0 25.252 19.985 26.024
500 167 2 0.0 26.558 20.42 25.722
501 167 1 0.0 26.716 21.404 26.137
502 168 1 0.0 31.252 19.985 26.024
503 168 2 0.0 32.558 20.42 25.722
504 168 1 0.0 32.716 21.404 26.137
505 169 1 0.0 1.252 25.985 26.024
506 169 2 0.0 2.558 26.42 25.722
507 169 1 0.0 2.716 27.404 26.137
508 170 1 0.0 7.252 25.985 26.024
509 170 2 0.0 8.558 26.42 25.722
510 170 1 0.0 8.716 27.404 26.137
511 171 1 0.0 13.252 25.985 26.024
512 171 2 0.0 14.558 26.42 25.722
513 171 1 0.0 14.716 27.404 26.137
514 172 1 0.0 19.252 25.985 26.024
515 172 2 0.0 20.558 26.42 25.722
516 172 1 0.0 20.716 27.404 26.137
517 173 1 0.0 25.252 25.985 26.024
518 173 2 0.0 26.558 26.42 25.722
519 173 1 0.0 26.716 27.404 26.137
520 174 1 0.0 31.252 25.985 26.024
521 174 2 0.0 32.558 26.42 25.722
522 174 1 0.0 32.716 27.404 26.137
523 175 1 0.0 1.252 31.985 26.024
524 175 2 0.0 2.558 32.42 25.722
525 175 1 0.0 2.716 33.403999999999996 26.137
526 176 1 0.0 7.252 31.985 26.024
527 176 2 0.0 8.558 32.42 25.722
528 176 1 0.0 8.716 33.403999999999996 26.137
529 177 1 0.0 13.252 31.985 26.024
530 177 2 0.0 14.558 32.42 25.722
531 177 1 0.0 14.716 33.403999999999996 26.137
532 178 1 0.0 19.252 31.985 26.024
533 178 2 0.0 20.558 32.42 25.722
534 178 1 0.0 20.716 33.403999999999996 26.137
535 179 1 0.0 25.252 31.985 26.024
536 179 2 0.0 26.558 32.42 25.722
537 179 1 0.0 26.716 33.403999999999996 26.137
538 180 1 0.0 31.252 31.985 26.024
539 180 2 0.0 32.558 32.42 25.722
540 180 1 0.0 32.716 33.403999999999996 26.137
541 181 1 0.0 1.252 1.985 32.024
542 181 2 0.0 2.558 2.42 31.722
543 181 1 0.0 2.716 3.404 32.137
544 182 1 0.0 7.252 1.985 32.024
545 182 2 0.0 8.558 2.42 31.722
546 182 1 0.0 8.716 3.404 32.137
547 183 1 0.0 13.252 1.985 32.024
548 183 2 0.0 14.558 2.42 31.722
549 183 1 0.0 14.716 3.404 32.137
550 184 1 0.0 19.252 1.985 32.024
551 184 2 0.0 20.558 2.42 31.722
552 184 1 0.0 20.716 3.404 32.137
553 185 1 0.0 25.252 1.985 32.024
554 185 2 0.0 26.558 2.42 31.722
555 185 1 0.0 26.716 3.404 32.137
556 186 1 0.0 31.252 1.985 32.024
557 186 2 0.0 32.558 2.42 31.722
558 186 1 0.0 32.716 3.404 32.137
559 187 1 0.0 1.252 7.985 32.024
560 187 2 0.0 2.558 8.42 31.722
561 187 1 0.0 2.716 9.404 32.137
562 188 1 0.0 7.252 7.985 32.024
563 188 2 0.0 8.558 8.42 31.722
564 188 1 0.0 8.716 9.404 32.137
565 189 1 0.0 13.252 7.985 32.024
566 189 2 0.0 14.558 8.42 31.722
567 189 1 0.0 14.716 9.404 32.137
568 190 1 0.0 19.252 7.985 32.024
569 190 2 0.0 20.558 8.42 31.722
570 190 1 0.0 20.716 9.404 32.137
571 191 1 0.0 25.252 7.985 32.024
572 191 2 0.0 26.558 8.42 31.722
573 191 1 0.0 26.716 9.404 32.137
574 192 1 0.0 31.252 7.985 32.024
575 192 2 0.0 32.558 8.42 31.722
576 192 1 0.0 32.716 9.404 32.137
577 193 1 0.0 1.252 13.985 32.024
578 193 2 0.0 2.558 14.42 31.722
579 193 1 0.0 2.716 15.404 32.137
580 194 1 0.0 7.252 13.985 32.024
581 194 2 0.0 8.558 14.42 31.722
582 194 1 0.0 8.716 15.404 32.137
583 195 1 0.0 13.252 13.985 32.024
584 195 2 0.0 14.558 14.42 31.722
585 195 1 0.0 14.716 15.404 32.137
586 196 1 0.0 19.252 13.985 32.024
587 196 2 0.0 20.558 14.42 31.722
588 196 1 0.0 20.716 15.404 32.137
589 197 1 0.0 25.252 13.985 32.024
590 197 2 0.0 26.558 14.42 31.722
591 197 1 0.0 26.716 15.404 32.137
592 198 1 0.0 31.252 13.985 32.024
593 198 2 0.0 32.558 14.42 31.722
594 198 1 0.0 32.716 15.404 32.137
595 199 1 0.0 1.252 19.985 32.024
596 199 2 0.0 2.558 20.42 31.722
597 199 1 0.0 2.716 21.404 32.137
598 200 1 0.0 7.252 19.985 32.024
599 200 2 0.0 8.558 20.42 31.722
600 200 1 0.0 8.716 21.404 32.137
601 201 1 0.0 13.252 19.985 32.024
602 201 2 0.0 14.558 20.42 31.722
603 201 1 0.0 14.716 21.404 32.137
604 202 1 0.0 19.252 19.985 32.024
605 202 2 0.0 20.558 20.42 31.722
606 202 1 0.0 20.716 21.404 32.137
607 203 1 0.0 25.252 19.985 32.024
608 203 2 0.0 26.558 20.42 31.722
609 203 1 0.0 26.716 21.404 32.137
610 204 1 0.0 31.252 19.985 32.024
611 204 2 0.0 32.558 20.42 31.722
612 204 1 0.0 32.716 21.404 32.137
613 205 1 0.0 1.252 25.985 32.024
614 205 2 0.0 2.558 26.42 31.722
615 205 1 0.0 2.716 27.404 32.137
616 206 1 0.0 7.252 25.985 32.024
617 206 2 0.0 8.558 26.42 31.722
618 206 1 0.0 8.716 27.404 32.137
619 207 1 0.0 13.252 25.985 32.024
620 207 2 0.0 14.558 26.42 31.722
621 207 1 0.0 14.716 27.404 32.137
622 208 1 0.0 19.252 25.985 32.024
623 208 2 0.0 20.558 26.42 31.722
624 208 1 0.0 20.716 27.404 32.137
625 209 1 0.0 25.252 25.985 32.024
626 209 2 0.0 26.558 26.42 31.722
627 209 1 0.0 26.716 27.404 32.137
628 210 1 0.0 31.252 25.985 32.024
629 210 2 0.0 32.558 26.42 31.722
630 210 1 0.0 32.716 27.404 32.137
631 211 1 0.0 1.252 31.985 32.024
632 211 2 0.0 2.558 32.42 31.722
633 211 1 0.0 2.716 33.403999999999996 32.137
634 212 1 0.0 7.252 31.985 32.024
635 212 2 0.0 8.558 32.42 31.722
636 212 1 0.0 8.716 33.403999999999996 32.137
637 213 1 0.0 13.252 31.985 32.024
638 213 2 0.0 14.558 32.42 31.722
639 213 1 0.0 14.716 33.403999999999996 32.137
640 214 1 0.0 19.252 31.985 32.024
641 214 2 0.0 20.558 32.42 31.722
642 214 1 0.0 20.716 33.403999999999996 32.137
643 215 1 0.0 25.252 31.985 32.024
644 215 2 0.0 26.558 32.42 31.722
645 215 1 0.0 26.716 33.403999999999996 32.137
646 216 1 0.0 31.252 31.985 32.024
647 216 2 0.0 32.558 32.42 31.722
648 216 1 0.0 32.716 33.403999999999996 32.137

Bonds

1 2 1 2
2 2 2 3
3 2 4 5
4 2 5 6
5 2 7 8
6 2 8 9
7 2 10 11
8 2 11 12
9 2 13 14
10 2 14 15
11 2 16 17
12 2 17 18
13 2 19 20
14 2 20 21
15 2 22 23
16 2 23 24
17 2 25 26
18 2 26 27
19 2 28 29
20 2 29 30
21 2 31 32
22 2 32 33
23 2 34 35
24 2 35 36
25 2 37 38
26 2 38 39
27 2 40 41
28 2 41 42
29 2 43 44
30 2 44 45
31 2 46 47
32 2 47 48
33 2 49 50
34 2 50 51
35 2 52 53
36 2 53 54
37 2 55 56
38 2 56 57
39 2 58 59
40 2 59 60
41 2 61 62
42 2 62 63
43 2 64 65
44 2 65 66
45 2 67 68
46 2 68 69
47 2 70 71
48 2 71 72
49 2 73 74
50 2 74 75
51 2 76 77
52 2 77 78
53 2 79 80
54 2 80 81
55 2 82 83
56 2 83 84
57 2 85 86
58 2 86 87
59 2 88 89
60 2 89 90
61 2 91 92
62 2 92 93
63 2 94 95
64 2 95 96
65 2 97 98
66 2 98 99
67 2 100 101
68 2 101 102
69 2 103 104
70 2 104 105
71 2 106 107
72 2 107 108
73 2 109 110
74 2 110 111
75 2 112 113
76 2 113 114
77 2 115 116
78 2 116 117
79 2 118 119
80 2 119 120
81 2 121 122
82 2 122 123
83 2 124 125
84 2 125 126
85 2 127 128
86 2 128 129
87 2 130 131
88 2 131 132
89 2 133 134
90 2 134 135
91 2 136 137
92 2 137 138
93 2 139 140
94 2 140 141
95 2 142 143
96 2 143 144
97 2 145 146
98 2 146 147
99 2 148 149
100 2 149 150
101 2 151 152
102 2 152 153
103 2 154 155
104 2 155 156
105 2 157 158
106 2 158 159
107 2 160 161
108 2 161 162
109 2 163 164
110 2 164 165
111 2 166 167
112 2 167 168
113 2 169 170
114 2 170 171
115 2 172 173
116 2 173 174
117 2 175 176
118 2 176 177
119 2 178 179
120 2 179 180
121 2 181 182
122 2 182 183
123 2 184 185
124 2 185 186
125 2 187 188
126 2 188 189
127 2 190 191
128 2 191 192
129 2 193 194
130 2 194 195
131 2 196 197
132 2 197 198
133 2 199 200
134 2 200 201
135 2 202 203
136 2 203 204
137 2 205 206
138 2 206 207
139 2 208 209
140 2 209 210
141 2 211 212
142 2 212 213
143 2 214 215
144 2 215 216
145 2 217 218
146 2 218 219
147 2 220 221
148 2 221 222
149 2 223 224
150 2 224 225
151 2 226 227
152 2 227 228
153 2 229 230
154 2 230 231
155 2 232 233
156 2 233 234
157 2 235 236
158 2 236 237
159 2 238 239
160 2 239 240
161 2 241 242
162 2 242 243
163 2 244 245
164 2 245 246
165 2 247 248
166 2 248 249
167 2 250 251
168 2 251 252
169 2 253 254
170 2 254 255
171 2 256 257
172 2 257 258
173 2 259 260
174 2 260 261
175 2 262 263
176 2 263 264
177 2 265 266
178 2 266 267
179 2 268 269
180 2 269 270
181 2 271 272
182 2 272 273
183 2 274 275
184 2 275 276
185 2 277 278
186 2 278 279
187 2 280 281
188 2 281 282
189 2 283 284
190 2 284 285
191 2 286 287
192 2 287 288
193 2 289 290
194 2 290 291
195 2 292 293
196 2 293 294
197 2 295 296
198 2 296 297
199 2 298 299
200 2 299 300
201 2 301 302
202 2 302 303
203 2 304 305
204 2 305 306
205 2 307 308
206 2 308 309
207 2 310 311
208 2 311 312
209 2 313 314
210 2 314 315
211 2 316 317
212 2 317 318
213 2 319 320
214 2 320 321
215 2 322 323
216 2 323 324
217 2 325 326
218 2 326 327
219 2 328 329
220 2 329 330
221 2 331 332
222 2 332 333
223 2 334 335
224 2 335 336
225 2 337 338
226 2 338 339
227 2 340 341
228 2 341 342
229 2 343 344
230 2 344 345
231 2 346 347
232 2 347 348
233 2 349 350
234 2 350 351
235 2 352 353
236 2 353 354
237 2 355 356
238 2 356 357
239 2 358 359
240 2 359 360
241 2 361 362
242 2 362 363
243 2 364 365
244 2 365 366
245 2 367 368
246 2 368 369
247 2 370 371
248 2 371 372
249 2 373 374
250 2 374 375
251 2 376 377
252 2 377 378
253 2 379 380
254 2 380 381
255 2 382 383
256 2 383 384
257 2 385 386
258 2 386 387
259 2 388 389
260 2 389 390
261 2 391 392
262 2 392 393
263 2 394 395
264 2 395 396
265 2 397 398
266 2 398 399
267 2 400 401
268 2 401 402
269 2 403 404
270 2 404 405
271 2 406 407
272 2 407 408
273 2 409 410
274 2 410 411
275 2 412 413
276 2 413 414
277 2 415 416
278 2 416 417
279 2 418 419
280 2 419 420
281 2 421 422
282 2 422 423
283 2 424 425
284 2 425 426
285 2 427 428
286 2 428 429
287 2 430 431
288 2 431 432
289 2 433 434
290 2 434 435
291 2 436 437
292 2 437 438
293 2 439 440
294 2 440 441
295 2 442 443
296 2 443 444
297 2 445 446
298 2 446 447
299 2 448 449
300 2 449 450
301 2 451 452
302 2 452 453
303 2 454 455
304 2 455 456
305 2 457 458
306 2 458 459
307 2 460 461
308 2 461 462
309 2 463 464
310 2 464 465
311 2 466 467
312 2 467 468
313 2 469 470
314 2 470 471
315 2 472 473
316 2 473 474
317 2 475 476
318 2 476 477
319 2 478 479
320 2 479 480
321 2 481 482
322 2 482 483
323 2 484 485
324 2 485 486
325 2 487 488
326 2 488 489
327 2 490 491
328 2 491 492
329 2 493 494
330 2 494 495
331 2 496 497
332 2 497 498
333 2 499 500
334 2 500 501
335 2 502 503
336 2 503 504
337 2 505 506
338 2 506 507
339 2 508 509
340 2 509 510
341 2 511 512
342 2 512 513
343 2 514 515
344 2 515 516
345 2 517 518
346 2 518 519
347 2 520 521
348 2 521 522
349 2 523 524
350 2 524 525
351 2 526 527
352 2 527 528
353 2 529 530
354 2 530 531
355 2 532 533
356 2 533 534
357 2 535 536
358 2 536 537
359 2 538 539
360 2 539 540
361 2 541 542
362 2 542 543
363 2 544 545
364 2 545 546
365 2 547 548
366 2 548 549
367 2 550 551
368 2 551 552
369 2 553 554
370 2 554 555
371 2 556 557
372 2 557 558
373 2 559 560
374 2 560 561
375 2 562 563
376 2 563 564
377 2 565 566
378 2 566 567
379 2 568 569
380 2 569 570
381 2 571 572
382 2 572 573
383 2 574 575
384 2 575 576
385 2 577 578
386 2 578 579
387 2 580 581
388 2 581 582
389 2 583 584
390 2 584 585
391 2 586 587
392 2 587 588
393 2 589 590
394 2 590 591
395 2 592 593
396 2 593 594
397 2 595 596
398 2 596 597
399 2 598 599
400 2 599 600
401 2 601 602
402 2 602 603
403 2 604 605
404 2 605 606
405 2 607 608
406 2 608 609
407 2 610 611
408 2 611 612
409 2 613 614
410 2 614 615
411 2 616 617
412 2 617 618
413 2 619 620
414 2 620 621
415 2 622 623
416 2 623 624
417 2 625 626
418 2 626 627
419 2 628 629
420 2 629 630
421 2 631 632
422 2 632 633
423 2 634 635
424 2 635 636
425 2 637 638
426 2 638 639
427 2 640 641
428 2 641 642
429 2 643 644
430 2 644 645
431 2 646 647
432 2 647 648

Angles

1 3 1 2 3
2 3 4 5 6
3 3 7 8 9
4 3 10 11 12
5 3 13 14 15
6 3 16 17 18
7 3 19 20 21
8 3 22 23 24
9 3 25 26 27
10 3 28 29 30
11 3 31 32 33
12 3 34 35 36
13 3 37 38 39
14 3 40 41 42
15 3 43 44 45
16 3 46 47 48
17 3 49 50 51
18 3 52 53 54
19 3 55 56 57
20 3 58 59 60
21 3 61 62 63
22 3 64 65 66
23 3 67 68 69
24 3 70 71 72
25 3 73 74 75
26 3 76 77 78
27 3 79 80 81
28 3 82 83 84
29 3 85 86 87
30 3 88 89 90
31 3 91 92 93
32 3 94 95 96
33 3 97 98 99
34 3 100 101 102
35 3 103 104 105
36 3 106 107 108
37 3 109 110 111
38 3 112 113 114
39 3 115 116 117
40 3 118 119 120
41 3 121 122 123
42 3 124 125 126
43 3 127 128 129
44 3 130 131 132
45 3 133 134 135
46 3 136 137 138
47 3 139 140 141
48 3 142 143 144
49 3 145 146 147
50 3 148 149 150
51 3 151 152 153
52 3 154 155 156
53 3 157 158 159
54 3 160 161 162
55 3 163 164 165
56 3 166 167 168
57 3 169 170 171
58 3 172 173 174
59 3 175 176 177
60 3 178 179 180
61 3 181 182 183
62 3 184 185 186
63 3 187 188 189
64 3 190 191 192
65 3 193 194 195
66 3 196 197 198
67 3 199 200 201
68 3 202 203 204
69 3 205 206 207
70 3 208 209 210
71 3 211 212 213
72 3 214 215 216
73 3 217 218 219
74 3 220 221 222
75 3 223 224 225
76 3 226 227 228
77 3 229 230 231
78 3 232 233 234
79 3 235 236 237
80 3 238 239 240
81 3 241 242 243
82 3 244 245 246
83 3 247 248 249
84 3 250 251 252
85 3 253 254 255
86 3 256 257 258
87 3 259 260 261
88 3 262 263 264
89 3 265 266 267
90 3 268 269 270
91 3 271 272 273
92 3 274 275 276
93 3 277 278 279
94 3 280 281 282
95 3 283 284 285
96 3 286 287 288