ITEM: TIMESTEP
0
ITEM: NUMBER OF ATOMS
648
ITEM: BOX BOUNDS pp pp pp
0 36
0 36
0 36
ITEM: ATOMS id mol type x y z ix iy iz element type 
1 1 1 1.11965 1.84644 2.00872 0 0 0 C 1 
2 1 2 2.53972 2.28742 1.66474 0 0 0 C 2 
3 1 1 2.86663 3.67514 2.20954 0 0 0 C 1 
4 2 1 7.11965 1.84644 2.00872 0 0 0 C 1 
5 2 2 8.53972 2.28742 1.66474 0 0 0 C 2 
6 2 1 8.86663 3.67514 2.20954 0 0 0 C 1 
7 3 1 13.1196 1.84644 2.00872 0 0 0 C 1 
8 3 2 14.5397 2.28742 1.66474 0 0 0 C 2 
9 3 1 14.8666 3.67514 2.20954 0 0 0 C 1 
10 4 1 19.1196 1.84644 2.00872 0 0 0 C 1 
11 4 2 20.5397 2.28742 1.66474 0 0 0 C 2 
12 4 1 20.8666 3.67514 2.20954 0 0 0 C 1 
13 5 1 25.1196 1.84644 2.00872 0 0 0 C 1 
14 5 2 26.5397 2.28742 1.66474 0 0 0 C 2 
15 5 1 26.8666 3.67514 2.20954 0 0 0 C 1 
16 6 1 31.1196 1.84644 2.00872 0 0 0 C 1 
17 6 2 32.5397 2.28742 1.66474 0 0 0 C 2 
18 6 1 32.8666 3.67514 2.20954 0 0 0 C 1 
19 7 1 1.11965 7.84644 2.00872 0 0 0 C 1 
20 7 2 2.53972 8.28742 1.66474 0 0 0 C 2 
21 7 1 2.86663 9.67514 2.20954 0 0 0 C 1 
22 8 1 7.11965 7.84644 2.00872 0 0 0 C 1 
23 8 2 8.53972 8.28742 1.66474 0 0 0 C 2 
24 8 1 8.86663 9.67514 2.20954 0 0 0 C 1 
25 9 1 13.1196 7.84644 2.00872 0 0 0 C 1 
26 9 2 14.5397 8.28742 1.66474 0 0 0 C 2 
27 9 1 14.8666 9.67514 2.20954 0 0 0 C 1 
28 10 1 19.1196 7.84644 2.00872 0 0 0 C 1 
29 10 2 20.5397 8.28742 1.66474 0 0 0 C 2 
30 10 1 20.8666 9.67514 2.20954 0 0 0 C 1 
31 11 1 25.1196 7.84644 2.00872 0 0 0 C 1 
32 11 2 26.5397 8.28742 1.66474 0 0 0 C 2 
33 11 1 26.8666 9.67514 2.20954 0 0 0 C 1 
34 12 1 31.1196 7.84644 2.00872 0 0 0 C 1 
35 12 2 32.5397 8.28742 1.66474 0 0 0 C 2 
36 12 1 32.8666 9.67514 2.20954 0 0 0 C 1 
37 13 1 1.11965 13.8464 2.00872 0 0 0 C 1 
38 13 2 2.53972 14.2874 1.66474 0 0 0 C 2 
39 13 1 2.86663 15.6751 2.20954 0 0 0 C 1 
40 14 1 7.11965 13.8464 2.00872 0 0 0 C 1 
41 14 2 8.53972 14.2874 1.66474 0 0 0 C 2 
42 14 1 8.86663 15.6751 2.20954 0 0 0 C 1 
43 15 1 13.1196 13.8464 2.00872 0 0 0 C 1 
44 15 2 14.5397 14.2874 1.66474 0 0 0 C 2 
45 15 1 14.8666 15.6751 2.20954 0 0 0 C 1 
46 16 1 19.1196 13.8464 2.00872 0 0 0 C 1 
47 16 2 20.5397 14.2874 1.66474 0 0 0 C 2 
48 16 1 20.8666 15.6751 2.20954 0 0 0 C 1 
49 17 1 25.1196 13.8464 2.00872 0 0 0 C 1 
50 17 2 26.5397 14.2874 1.66474 0 0 0 C 2 
51 17 1 26.8666 15.6751 2.20954 0 0 0 C 1 
52 18 1 31.1196 13.8464 2.00872 0 0 0 C 1 
53 18 2 32.5397 14.2874 1.66474 0 0 0 C 2 
54 18 1 32.8666 15.6751 2.20954 0 0 0 C 1 
55 19 1 1.11965 19.8464 2.00872 0 0 0 C 1 
56 19 2 2.53972 20.2874 1.66474 0 0 0 C 2 
57 19 1 2.86663 21.6751 2.20954 0 0 0 C 1 
58 20 1 7.11965 19.8464 2.00872 0 0 0 C 1 
59 20 2 8.53972 20.2874 1.66474 0 0 0 C 2 
60 20 1 8.86663 21.6751 2.20954 0 0 0 C 1 
61 21 1 13.1196 19.8464 2.00872 0 0 0 C 1 
62 21 2 14.5397 20.2874 1.66474 0 0 0 C 2 
63 21 1 14.8666 21.6751 2.20954 0 0 0 C 1 
64 22 1 19.1196 19.8464 2.00872 0 0 0 C 1 
65 22 2 20.5397 20.2874 1.66474 0 0 0 C 2 
66 22 1 20.8666 21.6751 2.20954 0 0 0 C 1 
67 23 1 25.1196 19.8464 2.00872 0 0 0 C 1 
68 23 2 26.5397 20.2874 1.66474 0 0 0 C 2 
69 23 1 26.8666 21.6751 2.20954 0 0 0 C 1 
70 24 1 31.1196 19.8464 2.00872 0 0 0 C 1 
71 24 2 32.5397 20.2874 1.66474 0 0 0 C 2 
72 24 1 32.8666 21.6751 2.20954 0 0 0 C 1 
73 25 1 1.11965 25.8464 2.00872 0 0 0 C 1 
74 25 2 2.53972 26.2874 1.66474 0 0 0 C 2 
75 25 1 2.86663 27.6751 2.20954 0 0 0 C 1 
76 26 1 7.11965 25.8464 2.00872 0 0 0 C 1 
77 26 2 8.53972 26.2874 1.66474 0 0 0 C 2 
78 26 1 8.86663 27.6751 2.20954 0 0 0 C 1 
79 27 1 13.1196 25.8464 2.00872 0 0 0 C 1 
80 27 2 14.5397 26.2874 1.66474 0 0 0 C 2 
81 27 1 14.8666 27.6751 2.20954 0 0 0 C 1 
82 28 1 19.1196 25.8464 2.00872 0 0 0 C 1 
83 28 2 20.5397 26.2874 1.66474 0 0 0 C 2 
84 28 1 20.8666 27.6751 2.20954 0 0 0 C 1 
85 29 1 25.1196 25.8464 2.00872 0 0 0 C 1 
86 29 2 26.5397 26.2874 1.66474 0 0 0 C 2 
87 29 1 26.8666 27.6751 2.20954 0 0 0 C 1 
88 30 1 31.1196 25.8464 2.00872 0 0 0 C 1 
89 30 2 32.5397 26.2874 1.66474 0 0 0 C 2 
90 30 1 32.8666 27.6751 2.20954 0 0 0 C 1 
91 31 1 1.11965 31.8464 2.00872 0 0 0 C 1 
92 31 2 2.53972 32.2874 1.66474 0 0 0 C 2 
93 31 1 2.86663 33.6751 2.20954 0 0 0 C 1 
94 32 1 7.11965 31.8464 2.00872 0 0 0 C 1 
95 32 2 8.53972 32.2874 1.66474 0 0 0 C 2 
96 32 1 8.86663 33.6751 2.20954 0 0 0 C 1 
97 33 1 13.1196 31.8464 2.00872 0 0 0 C 1 
98 33 2 14.5397 32.2874 1.66474 0 0 0 C 2 
99 33 1 14.8666 33.6751 2.20954 0 0 0 C 1 
100 34 1 19.1196 31.8464 2.00872 0 0 0 C 1 
101 34 2 20.5397 32.2874 1.66474 0 0 0 C 2 
102 34 1 20.8666 33.6751 2.20954 0 0 0 C 1 
103 35 1 25.1196 31.8464 2.00872 0 0 0 C 1 
104 35 2 26.5397 32.2874 1.66474 0 0 0 C 2 
105 35 1 26.8666 33.6751 2.20954 0 0 0 C 1 
106 36 1 31.1196 31.8464 2.00872 0 0 0 C 1 
107 36 2 32.5397 32.2874 1.66474 0 0 0 C 2 
108 36 1 32.8666 33.6751 2.20954 0 0 0 C 1 
109 37 1 1.11965 1.84644 8.00872 0 0 0 C 1 
110 37 2 2.53972 2.28742 7.66474 0 0 0 C 2 
111 37 1 2.86663 3.67514 8.20954 0 0 0 C 1 
112 38 1 7.11965 1.84644 8.00872 0 0 0 C 1 
113 38 2 8.53972 2.28742 7.66474 0 0 0 C 2 
114 38 1 8.86663 3.67514 8.20954 0 0 0 C 1 
115 39 1 13.1196 1.84644 8.00872 0 0 0 C 1 
116 39 2 14.5397 2.28742 7.66474 0 0 0 C 2 
117 39 1 14.8666 3.67514 8.20954 0 0 0 C 1 
118 40 1 19.1196 1.84644 8.00872 0 0 0 C 1 
119 40 2 20.5397 2.28742 7.66474 0 0 0 C 2 
120 40 1 20.8666 3.67514 8.20954 0 0 0 C 1 
121 41 1 25.1196 1.84644 8.00872 0 0 0 C 1 
122 41 2 26.5397 2.28742 7.66474 0 0 0 C 2 
123 41 1 26.8666 3.67514 8.20954 0 0 0 C 1 
124 42 1 31.1196 1.84644 8.00872 0 0 0 C 1 
125 42 2 32.5397 2.28742 7.66474 0 0 0 C 2 
126 42 1 32.8666 3.67514 8.20954 0 0 0 C 1 
127 43 1 1.11965 7.84644 8.00872 0 0 0 C 1 
128 43 2 2.53972 8.28742 7.66474 0 0 0 C 2 
129 43 1 2.86663 9.67514 8.20954 0 0 0 C 1 
130 44 1 7.11965 7.84644 8.00872 0 0 0 C 1 
131 44 2 8.53972 8.28742 7.66474 0 0 0 C 2 
132 44 1 8.86663 9.67514 8.20954 0 0 0 C 1 
133 45 1 13.1196 7.84644 8.00872 0 0 0 C 1 
134 45 2 14.5397 8.28742 7.66474 0 0 0 C 2 
135 45 1 14.8666 9.67514 8.20954 0 0 0 C 1 
136 46 1 19.1196 7.84644 8.00872 0 0 0 C 1 
137 46 2 20.5397 8.28742 7.66474 0 0 0 C 2 
138 46 1 20.8666 9.67514 8.20954 0 0 0 C 1 
139 47 1 25.1196 7.84644 8.00872 0 0 0 C 1 
140 47 2 26.5397 8.28742 7.66474 0 0 0 C 2 
141 47 1 26.8666 9.67514 8.20954 0 0 0 C 1 
142 48 1 31.1196 7.84644 8.00872 0 0 0 C 1 
143 48 2 32.5397 8.28742 7.66474 0 0 0 C 2 
144 48 1 32.8666 9.67514 8.20954 0 0 0 C 1 
145 49 1 1.11965 13.8464 8.00872 0 0 0 C 1 
146 49 2 2.53972 14.2874 7.66474 0 0 0 C 2 
147 49 1 2.86663 15.6751 8.20954 0 0 0 C 1 
148 50 1 7.11965 13.8464 8.00872 0 0 0 C 1 
149 50 2 8.53972 14.2874 7.66474 0 0 0 C 2 
150 50 1 8.86663 15.6751 8.20954 0 0 0 C 1 
151 51 1 13.1196 13.8464 8.00872 0 0 0 C 1 
152 51 2 14.5397 14.2874 7.66474 0 0 0 C 2 
153 51 1 14.8666 15.6751 8.20954 0 0 0 C 1 
154 52 1 19.1196 13.8464 8.00872 0 0 0 C 1 
155 52 2 20.5397 14.2874 7.66474 0 0 0 C 2 
156 52 1 20.8666 15.6751 8.20954 0 0 0 C 1 
157 53 1 25.1196 13.8464 8.00872 0 0 0 C 1 
158 53 2 26.5397 14.2874 7.66474 0 0 0 C 2 
159 53 1 26.8666 15.6751 8.20954 0 0 0 C 1 
160 54 1 31.1196 13.8464 8.00872 0 0 0 C 1 
161 54 2 32.5397 14.2874 7.66474 0 0 0 C 2 
162 54 1 32.8666 15.6751 8.20954 0 0 0 C 1 
163 55 1 1.11965 19.8464 8.00872 0 0 0 C 1 
164 55 2 2.53972 20.2874 7.66474 0 0 0 C 2 
165 55 1 2.86663 21.6751 8.20954 0 0 0 C 1 
166 56 1 7.11965 19.8464 8.00872 0 0 0 C 1 
167 56 2 8.53972 20.2874 7.66474 0 0 0 C 2 
168 56 1 8.86663 21.6751 8.20954 0 0 0 C 1 
169 57 1 13.1196 19.8464 8.00872 0 0 0 C 1 
170 57 2 14.5397 20.2874 7.66474 0 0 0 C 2 
171 57 1 14.8666 21.6751 8.20954 0 0 0 C 1 
172 58 1 19.1196 19.8464 8.00872 0 0 0 C 1 
173 58 2 20.5397 20.2874 7.66474 0 0 0 C 2 
174 58 1 20.8666 21.6751 8.20954 0 0 0 C 1 
175 59 1 25.1196 19.8464 8.00872 0 0 0 C 1 
176 59 2 26.5397 20.2874 7.66474 0 0 0 C 2 
177 59 1 26.8666 21.6751 8.20954 0 0 0 C 1 
178 60 1 31.1196 19.8464 8.00872 0 0 0 C 1 
179 60 2 32.5397 20.2874 7.66474 0 0 0 C 2 
180 60 1 32.8666 21.6751 8.20954 0 0 0 C 1 
181 61 1 1.11965 25.8464 8.00872 0 0 0 C 1 
182 61 2 2.53972 26.2874 7.66474 0 0 0 C 2 
183 61 1 2.86663 27.6751 8.20954 0 0 0 C 1 
184 62 1 7.11965 25.8464 8.00872 0 0 0 C 1 
185 62 2 8.53972 26.2874 7.66474 0 0 0 C 2 
186 62 1 8.86663 27.6751 8.20954 0 0 0 C 1 
187 63 1 13.1196 25.8464 8.00872 0 0 0 C 1 
188 63 2 14.5397 26.2874 7.66474 0 0 0 C 2 
189 63 1 14.8666 27.6751 8.20954 0 0 0 C 1 
190 64 1 19.1196 25.8464 8.00872 0 0 0 C 1 
191 64 2 20.5397 26.2874 7.66474 0 0 0 C 2 
192 64 1 20.8666 27.6751 8.20954 0 0 0 C 1 
193 65 1 25.1196 25.8464 8.00872 0 0 0 C 1 
194 65 2 26.5397 26.2874 7.66474 0 0 0 C 2 
195 65 1 26.8666 27.6751 8.20954 0 0 0 C 1 
196 66 1 31.1196 25.8464 8.00872 0 0 0 C 1 
197 66 2 32.5397 26.2874 7.66474 0 0 0 C 2 
198 66 1 32.8666 27.6751 8.20954 0 0 0 C 1 
199 67 1 1.11965 31.8464 8.00872 0 0 0 C 1 
200 67 2 2.53972 32.2874 7.66474 0 0 0 C 2 
201 67 1 2.86663 33.6751 8.20954 0 0 0 C 1 
202 68 1 7.11965 31.8464 8.00872 0 0 0 C 1 
203 68 2 8.53972 32.2874 7.66474 0 0 0 C 2 
204 68 1 8.86663 33.6751 8.20954 0 0 0 C 1 
205 69 1 13.1196 31.8464 8.00872 0 0 0 C 1 
206 69 2 14.5397 32.2874 7.66474 0 0 0 C 2 
207 69 1 14.8666 33.6751 8.20954 0 0 0 C 1 
208 70 1 19.1196 31.8464 8.00872 0 0 0 C 1 
209 70 2 20.5397 32.2874 7.66474 0 0 0 C 2 
210 70 1 20.8666 33.6751 8.20954 0 0 0 C 1 
211 71 1 25.1196 31.8464 8.00872 0 0 0 C 1 
212 71 2 26.5397 32.2874 7.66474 0 0 0 C 2 
213 71 1 26.8666 33.6751 8.20954 0 0 0 C 1 
214 72 1 31.1196 31.8464 8.00872 0 0 0 C 1 
215 72 2 32.5397 32.2874 7.66474 0 0 0 C 2 
216 72 1 32.8666 33.6751 8.20954 0 0 0 C 1 
217 73 1 1.11965 1.84644 14.0087 0 0 0 C 1 
218 73 2 2.53972 2.28742 13.6647 0 0 0 C 2 
219 73 1 2.86663 3.67514 14.2095 0 0 0 C 1 
220 74 1 7.11965 1.84644 14.0087 0 0 0 C 1 
221 74 2 8.53972 2.28742 13.6647 0 0 0 C 2 
222 74 1 8.86663 3.67514 14.2095 0 0 0 C 1 
223 75 1 13.1196 1.84644 14.0087 0 0 0 C 1 
224 75 2 14.5397 2.28742 13.6647 0 0 0 C 2 
225 75 1 14.8666 3.67514 14.2095 0 0 0 C 1 
226 76 1 19.1196 1.84644 14.0087 0 0 0 C 1 
227 76 2 20.5397 2.28742 13.6647 0 0 0 C 2 
228 76 1 20.8666 3.67514 14.2095 0 0 0 C 1 
229 77 1 25.1196 1.84644 14.0087 0 0 0 C 1 
230 77 2 26.5397 2.28742 13.6647 0 0 0 C 2 
231 77 1 26.8666 3.67514 14.2095 0 0 0 C 1 
232 78 1 31.1196 1.84644 14.0087 0 0 0 C 1 
233 78 2 32.5397 2.28742 13.6647 0 0 0 C 2 
234 78 1 32.8666 3.67514 14.2095 0 0 0 C 1 
235 79 1 1.11965 7.84644 14.0087 0 0 0 C 1 
236 79 2 2.53972 8.28742 13.6647 0 0 0 C 2 
237 79 1 2.86663 9.67514 14.2095 0 0 0 C 1 
238 80 1 7.11965 7.84644 14.0087 0 0 0 C 1 
239 80 2 8.53972 8.28742 13.6647 0 0 0 C 2 
240 80 1 8.86663 9.67514 14.2095 0 0 0 C 1 
241 81 1 13.1196 7.84644 14.0087 0 0 0 C 1 
242 81 2 14.5397 8.28742 13.6647 0 0 0 C 2 
243 81 1 14.8666 9.67514 14.2095 0 0 0 C 1 
244 82 1 19.1196 7.84644 14.0087 0 0 0 C 1 
245 82 2 20.5397 8.28742 13.6647 0 0 0 C 2 
246 82 1 20.8666 9.67514 14.2095 0 0 0 C 1 
247 83 1 25.1196 7.84644 14.0087 0 0 0 C 1 
248 83 2 26.5397 8.28742 13.6647 0 0 0 C 2 
249 83 1 26.8666 9.67514 14.2095 0 0 0 C 1 
250 84 1 31.1196 7.84644 14.0087 0 0 0 C 1 
251 84 2 32.5397 8.28742 13.6647 0 0 0 C 2 
252 84 1 32.8666 9.67514 14.2095 0 0 0 C 1 
253 85 1 1.11965 13.8464 14.0087 0 0 0 C 1 
254 85 2 2.53972 14.2874 13.6647 0 0 0 C 2 
255 85 1 2.86663 15.6751 14.2095 0 0 0 C 1 
256 86 1 7.11965 13.8464 14.0087 0 0 0 C 1 
257 86 2 8.53972 14.2874 13.6647 0 0 0 C 2 
258 86 1 8.86663 15.6751 14.2095 0 0 0 C 1 
259 87 1 13.1196 13.8464 14.0087 0 0 0 C 1 
260 87 2 14.5397 14.2874 13.6647 0 0 0 C 2 
261 87 1 14.8666 15.6751 14.2095 0 0 0 C 1 
262 88 1 19.1196 13.8464 14.0087 0 0 0 C 1 
263 88 2 20.5397 14.2874 13.6647 0 0 0 C 2 
264 88 1 20.8666 15.6751 14.2095 0 0 0 C 1 
265 89 1 25.1196 13.8464 14.0087 0 0 0 C 1 
266 89 2 26.5397 14.2874 13.6647 0 0 0 C 2 
267 89 1 26.8666 15.6751 14.2095 0 0 0 C 1 
268 90 1 31.1196 13.8464 14.0087 0 0 0 C 1 
269 90 2 32.5397 14.2874 13.6647 0 0 0 C 2 
270 90 1 32.8666 15.6751 14.2095 0 0 0 C 1 
271 91 1 1.11965 19.8464 14.0087 0 0 0 C 1 
272 91 2 2.53972 20.2874 13.6647 0 0 0 C 2 
273 91 1 2.86663 21.6751 14.2095 0 0 0 C 1 
274 92 1 7.11965 19.8464 14.0087 0 0 0 C 1 
275 92 2 8.53972 20.2874 13.6647 0 0 0 C 2 
276 92 1 8.86663 21.6751 14.2095 0 0 0 C 1 
277 93 1 13.1196 19.8464 14.0087 0 0 0 C 1 
278 93 2 14.5397 20.2874 13.6647 0 0 0 C 2 
279 93 1 14.8666 21.6751 14.2095 0 0 0 C 1 
280 94 1 19.1196 19.8464 14.0087 0 0 0 C 1 
281 94 2 20.5397 20.2874 13.6647 0 0 0 C 2 
282 94 1 20.8666 21.6751 14.2095 0 0 0 C 1 
283 95 1 25.1196 19.8464 14.0087 0 0 0 C 1 
284 95 2 26.5397 20.2874 13.6647 0 0 0 C 2 
285 95 1 26.8666 21.6751 14.2095 0 0 0 C 1 
286 96 1 31.1196 19.8464 14.0087 0 0 0 C 1 
287 96 2 32.5397 20.2874 13.6647 0 0 0 C 2 
288 96 1 32.8666 21.6751 14.2095 0 0 0 C 1 
289 97 1 1.11965 25.8464 14.0087 0 0 0 C 1 
290 97 2 2.53972 26.2874 13.6647 0 0 0 C 2 
291 97 1 2.86663 27.6751 14.2095 0 0 0 C 1 
292 98 1 7.11965 25.8464 14.0087 0 0 0 C 1 
293 98 2 8.53972 26.2874 13.6647 0 0 0 C 2 
294 98 1 8.86663 27.6751 14.2095 0 0 0 C 1 
295 99 1 13.1196 25.8464 14.0087 0 0 0 C 1 
296 99 2 14.5397 26.2874 13.6647 0 0 0 C 2 
297 99 1 14.8666 27.6751 14.2095 0 0 0 C 1 
298 100 1 19.1196 25.8464 14.0087 0 0 0 C 1 
299 100 2 20.5397 26.2874 13.6647 0 0 0 C 2 
300 100 1 20.8666 27.6751 14.2095 0 0 0 C 1 
301 101 1 25.1196 25.8464 14.0087 0 0 0 C 1 
302 101 2 26.5397 26.2874 13.6647 0 0 0 C 2 
303 101 1 26.8666 27.6751 14.2095 0 0 0 C 1 
304 102 1 31.1196 25.8464 14.0087 0 0 0 C 1 
305 102 2 32.5397 26.2874 13.6647 0 0 0 C 2 
306 102 1 32.8666 27.6751 14.2095 0 0 0 C 1 
307 103 1 1.11965 31.8464 14.0087 0 0 0 C 1 
308 103 2 2.53972 32.2874 13.6647 0 0 0 C 2 
309 103 1 2.86663 33.6751 14.2095 0 0 0 C 1 
310 104 1 7.11965 31.8464 14.0087 0 0 0 C 1 
311 104 2 8.53972 32.2874 13.6647 0 0 0 C 2 
312 104 1 8.86663 33.6751 14.2095 0 0 0 C 1 
313 105 1 13.1196 31.8464 14.0087 0 0 0 C 1 
314 105 2 14.5397 32.2874 13.6647 0 0 0 C 2 
315 105 1 14.8666 33.6751 14.2095 0 0 0 C 1 
316 106 1 19.1196 31.8464 14.0087 0 0 0 C 1 
317 106 2 20.5397 32.2874 13.6647 0 0 0 C 2 
318 106 1 20.8666 33.6751 14.2095 0 0 0 C 1 
319 107 1 25.1196 31.8464 14.0087 0 0 0 C 1 
320 107 2 26.5397 32.2874 13.6647 0 0 0 C 2 
321 107 1 26.8666 33.6751 14.2095 0 0 0 C 1 
322 108 1 31.1196 31.8464 14.0087 0 0 0 C 1 
323 108 2 32.5397 32.2874 13.6647 0 0 0 C 2 
324 108 1 32.8666 33.6751 14.2095 0 0 0 C 1 
325 109 1 1.11965 1.84644 20.0087 0 0 0 C 1 
326 109 2 2.53972 2.28742 19.6647 0 0 0 C 2 
327 109 1 2.86663 3.67514 20.2095 0 0 0 C 1 
328 110 1 7.11965 1.84644 20.0087 0 0 0 C 1 
329 110 2 8.53972 2.28742 19.6647 0 0 0 C 2 
330 110 1 8.86663 3.67514 20.2095 0 0 0 C 1 
331 111 1 13.1196 1.84644 20.0087 0 0 0 C 1 
332 111 2 14.5397 2.28742 19.6647 0 0 0 C 2 
333 111 1 14.8666 3.67514 20.2095 0 0 0 C 1 
334 112 1 19.1196 1.84644 20.0087 0 0 0 C 1 
335 112 2 20.5397 2.28742 19.6647 0 0 0 C 2 
336 112 1 20.8666 3.67514 20.2095 0 0 0 C 1 
337 113 1 25.1196 1.84644 20.0087 0 0 0 C 1 
338 113 2 26.5397 2.28742 19.6647 0 0 0 C 2 
339 113 1 26.8666 3.67514 20.2095 0 0 0 C 1 
340 114 1 31.1196 1.84644 20.0087 0 0 0 C 1 
341 114 2 32.5397 2.28742 19.6647 0 0 0 C 2 
342 114 1 32.8666 3.67514 20.2095 0 0 0 C 1 
343 115 1 1.11965 7.84644 20.0087 0 0 0 C 1 
344 115 2 2.53972 8.28742 19.6647 0 0 0 C 2 
345 115 1 2.86663 9.67514 20.2095 0 0 0 C 1 
346 116 1 7.11965 7.84644 20.0087 0 0 0 C 1 
347 116 2 8.53972 8.28742 19.6647 0 0 0 C 2 
348 116 1 8.86663 9.67514 20.2095 0 0 0 C 1 
349 117 1 13.1196 7.84644 20.0087 0 0 0 C 1 
350 117 2 14.5397 8.28742 19.6647 0 0 0 C 2 
351 117 1 14.8666 9.67514 20.2095 0 0 0 C 1 
352 118 1 19.1196 7.84644 20.0087 0 0 0 C 1 
353 118 2 20.5397 8.28742 19.6647 0 0 0 C 2 
354 118 1 20.8666 9.67514 20.2095 0 0 0 C 1 
355 119 1 25.1196 7.84644 20.0087 0 0 0 C 1 
356 119 2 26.5397 8.28742 19.6647 0 0 0 C 2 
357 119 1 26.8666 9.67514 20.2095 0 0 0 C 1 
358 120 1 31.1196 7.84644 20.0087 0 0 0 C 1 
359 120 2 32.5397 8.28742 19.6647 0 0 0 C 2 
360 120 1 32.8666 9.67514 20.2095 0 0 0 C 1 
361 121 1 1.11965 13.8464 20.0087 0 0 0 C 1 
362 121 2 2.53972 14.2874 19.6647 0 0 0 C 2 
363 121 1 2.86663 15.6751 20.2095 0 0 0 C 1 
364 122 1 7.11965 13.8464 20.0087 0 0 0 C 1 
365 122 2 8.53972 14.2874 19.6647 0 0 0 C 2 
366 122 1 8.86663 15.6751 20.2095 0 0 0 C 1 
367 123 1 13.1196 13.8464 20.0087 0 0 0 C 1 
368 123 2 14.5397 14.2874 19.6647 0 0 0 C 2 
369 123 1 14.8666 15.6751 20.2095 0 0 0 C 1 
370 124 1 19.1196 13.8464 20.0087 0 0 0 C 1 
371 124 2 20.5397 14.2874 19.6647 0 0 0 C 2 
372 124 1 20.8666 15.6751 20.2095 0 0 0 C 1 
373 125 1 25.1196 13.8464 20.0087 0 0 0 C 1 
374 125 2 26.5397 14.2874 19.6647 0 0 0 C 2 
375 125 1 26.8666 15.6751 20.2095 0 0 0 C 1 
376 126 1 31.1196 13.8464 20.0087 0 0 0 C 1 
377 126 2 32.5397 14.2874 19.6647 0 0 0 C 2 
378 126 1 32.8666 15.6751 20.2095 0 0 0 C 1 
379 127 1 1.11965 19.8464 20.0087 0 0 0 C 1 
380 127 2 2.53972 20.2874 19.6647 0 0 0 C 2 
381 127 1 2.86663 21.6751 20.2095 0 0 0 C 1 
382 128 1 7.11965 19.8464 20.0087 0 0 0 C 1 
383 128 2 8.53972 20.2874 19.6647 0 0 0 C 2 
384 128 1 8.86663 21.6751 20.2095 0 0 0 C 1 
385 129 1 13.1196 19.8464 20.0087 0 0 0 C 1 
386 129 2 14.5397 20.2874 19.6647 0 0 0 C 2 
387 129 1 14.8666 21.6751 20.2095 0 0 0 C 1 
388 130 1 19.1196 19.8464 20.0087 0 0 0 C 1 
389 130 2 20.5397 20.2874 19.6647 0 0 0 C 2 
390 130 1 20.8666 21.6751 20.2095 0 0 0 C 1 
391 131 1 25.1196 19.8464 20.0087 0 0 0 C 1 
392 131 2 26.5397 20.2874 19.6647 0 0 0 C 2 
393 131 1 26.8666 21.6751 20.2095 0 0 0 C 1 
394 132 1 31.1196 19.8464 20.0087 0 0 0 C 1 
395 132 2 32.5397 20.2874 19.6647 0 0 0 C 2 
396 132 1 32.8666 21.6751 20.2095 0 0 0 C 1 
397 133 1 1.11965 25.8464 20.0087 0 0 0 C 1 
398 133 2 2.53972 26.2874 19.6647 0 0 0 C 2 
399 133 1 2.86663 27.6751 20.2095 0 0 0 C 1 
400 134 1 7.11965 25.8464 20.0087 0 0 0 C 1 
401 134 2 8.53972 26.2874 19.6647 0 0 0 C 2 
402 134 1 8.86663 27.6751 20.2095 0 0 0 C 1 
403 135 1 13.1196 25.8464 20.0087 0 0 0 C 1 
404 135 2 14.5397 26.2874 19.6647 0 0 0 C 2 
405 135 1 14.8666 27.6751 20.2095 0 0 0 C 1 
406 136 1 19.1196 25.8464 20.0087 0 0 0 C 1 
407 136 2 20.5397 26.2874 19.6647 0 0 0 C 2 
408 136 1 20.8666 27.6751 20.2095 0 0 0 C 1 
409 137 1 25.1196 25.8464 20.0087 0 0 0 C 1 
410 137 2 26.5397 26.2874 19.6647 0 0 0 C 2 
411 137 1 26.8666 27.6751 20.2095 0 0 0 C 1 
412 138 1 31.1196 25.8464 20.0087 0 0 0 C 1 
413 138 2 32.5397 26.2874 19.6647 0 0 0 C 2 
414 138 1 32.8666 27.6751 20.2095 0 0 0 C 1 
415 139 1 1.11965 31.8464 20.0087 0 0 0 C 1 
416 139 2 2.53972 32.2874 19.6647 0 0 0 C 2 
417 139 1 2.86663 33.6751 20.2095 0 0 0 C 1 
418 140 1 7.11965 31.8464 20.0087 0 0 0 C 1 
419 140 2 8.53972 32.2874 19.6647 0 0 0 C 2 
420 140 1 8.86663 33.6751 20.2095 0 0 0 C 1 
421 141 1 13.1196 31.8464 20.0087 0 0 0 C 1 
422 141 2 14.5397 32.2874 19.6647 0 0 0 C 2 
423 141 1 14.8666 33.6751 20.2095 0 0 0 C 1 
424 142 1 19.1196 31.8464 20.0087 0 0 0 C 1 
425 142 2 20.5397 32.2874 19.6647 0 0 0 C 2 
426 142 1 20.8666 33.6751 20.2095 0 0 0 C 1 
427 143 1 25.1196 31.8464 20.0087 0 0 0 C 1 
428 143 2 26.5397 32.2874 19.6647 0 0 0 C 2 
429 143 1 26.8666 33.6751 20.2095 0 0 0 C 1 
430 144 1 31.1196 31.8464 20.0087 0 0 0 C 1 
431 144 2 32.5397 32.2874 19.6647 0 0 0 C 2 
432 144 1 32.8666 33.6751 20.2095 0 0 0 C 1 
433 145 1 1.11965 1.84644 26.0087 0 0 0 C 1 
434 145 2 2.53972 2.28742 25.6647 0 0 0 C 2 
435 145 1 2.86663 3.67514 26.2095 0 0 0 C 1 
436 146 1 7.11965 1.84644 26.0087 0 0 0 C 1 
437 146 2 8.53972 2.28742 25.6647 0 0 0 C 2 
438 146 1 8.86663 3.67514 26.2095 0 0 0 C 1 
439 147 1 13.1196 1.84644 26.0087 0 0 0 C 1 
440 147 2 14.5397 2.28742 25.6647 0 0 0 C 2 
441 147 1 14.8666 3.67514 26.2095 0 0 0 C 1 
442 148 1 19.1196 1.84644 26.0087 0 0 0 C 1 
443 148 2 20.5397 2.28742 25.6647 0 0 0 C 2 
444 148 1 20.8666 3.67514 26.2095 0 0 0 C 1 
445 149 1 25.1196 1.84644 26.0087 0 0 0 C 1 
446 149 2 26.5397 2.28742 25.6647 0 0 0 C 2 
447 149 1 26.8666 3.67514 26.2095 0 0 0 C 1 
448 150 1 31.1196 1.84644 26.0087 0 0 0 C 1 
449 150 2 32.5397 2.28742 25.6647 0 0 0 C 2 
450 150 1 32.8666 3.67514 26.2095 0 0 0 C 1 
451 151 1 1.11965 7.84644 26.0087 0 0 0 C 1 
452 151 2 2.53972 8.28742 25.6647 0 0 0 C 2 
453 151 1 2.86663 9.67514 26.2095 0 0 0 C 1 
454 152 1 7.11965 7.84644 26.0087 0 0 0 C 1 
455 152 2 8.53972 8.28742 25.6647 0 0 0 C 2 
456 152 1 8.86663 9.67514 26.2095 0 0 0 C 1 
457 153 1 13.1196 7.84644 26.0087 0 0 0 C 1 
458 153 2 14.5397 8.28742 25.6647 0 0 0 C 2 
459 153 1 14.8666 9.67514 26.2095 0 0 0 C 1 
460 154 1 19.1196 7.84644 26.0087 0 0 0 C 1 
461 154 2 20.5397 8.28742 25.6647 0 0 0 C 2 
462 154 1 20.8666 9.67514 26.2095 0 0 0 C 1 
463 155 1 25.1196 7.84644 26.0087 0 0 0 C 1 
464 155 2 26.5397 8.28742 25.6647 0 0 0 C 2 
465 155 1 26.8666 9.67514 26.2095 0 0 0 C 1 
466 156 1 31.1196 7.84644 26.0087 0 0 0 C 1 
467 156 2 32.5397 8.28742 25.6647 0 0 0 C 2 
468 156 1 32.8666 9.67514 26.2095 0 0 0 C 1 
469 157 1 1.11965 13.8464 26.0087 0 0 0 C 1 
470 157 2 2.53972 14.2874 25.6647 0 0 0 C 2 
471 157 1 2.86663 15.6751 26.2095 0 0 0 C 1 
472 158 1 7.11965 13.8464 26.0087 0 0 0 C 1 
473 158 2 8.53972 14.2874 25.6647 0 0 0 C 2 
474 158 1 8.86663 15.6751 26.2095 0 0 0 C 1 
475 159 1 13.1196 13.8464 26.0087 0 0 0 C 1 
476 159 2 14.5397 14.2874 25.6647 0 0 0 C 2 
477 159 1 14.8666 15.6751 26.2095 0 0 0 C 1 
478 160 1 19.1196 13.8464 26.0087 0 0 0 C 1 
479 160 2 20.5397 14.2874 25.6647 0 0 0 C 2 
480 160 1 20.8666 15.6751 26.2095 0 0 0 C 1 
481 161 1 25.1196 13.8464 26.0087 0 0 0 C 1 
482 161 2 26.5397 14.2874 25.6647 0 0 0 C 2 
483 161 1 26.8666 15.6751 26.2095 0 0 0 C 1 
484 162 1 31.1196 13.8464 26.0087 0 0 0 C 1 
485 162 2 32.5397 14.2874 25.6647 0 0 0 C 2 
486 162 1 32.8666 15.6751 26.2095 0 0 0 C 1 
487 163 1 1.11965 19.8464 26.0087 0 0 0 C 1 
488 163 2 2.53972 20.2874 25.6647 0 0 0 C 2 
489 163 1 2.86663 21.6751 26.2095 0 0 0 C 1 
490 164 1 7.11965 19.8464 26.0087 0 0 0 C 1 
491 164 2 8.53972 20.2874 25.6647 0 0 0 C 2 
492 164 1 8.86663 21.6751 26.2095 0 0 0 C 1 
493 165 1 13.1196 19.8464 26.0087 0 0 0 C 1 
494 165 2 14.5397 20.2874 25.6647 0 0 0 C 2 
495 165 1 14.8666 21.6751 26.2095 0 0 0 C 1 
496 166 1 19.1196 19.8464 26.0087 0 0 0 C 1 
497 166 2 20.5397 20.2874 25.6647 0 0 0 C 2 
498 166 1 20.8666 21.6751 26.2095 0 0 0 C 1 
499 167 1 25.1196 19.8464 26.0087 0 0 0 C 1 
500 167 2 26.5397 20.2874 25.6647 0 0 0 C 2 
501 167 1 26.8666 21.6751 26.2095 0 0 0 C 1 
502 168 1 31.1196 19.8464 26.0087 0 0 0 C 1 
503 168 2 32.5397 20.2874 25.6647 0 0 0 C 2 
504 168 1 32.8666 21.6751 26.2095 0 0 0 C 1 
505 169 1 1.11965 25.8464 26.0087 0 0 0 C 1 
506 169 2 2.53972 26.2874 25.6647 0 0 0 C 2 
507 169 1 2.86663 27.6751 26.2095 0 0 0 C 1 
508 170 1 7.11965 25.8464 26.0087 0 0 0 C 1 
509 170 2 8.53972 26.2874 25.6647 0 0 0 C 2 
510 170 1 8.86663 27.6751 26.2095 0 0 0 C 1 
511 171 1 13.1196 25.8464 26.0087 0 0 0 C 1 
512 171 2 14.5397 26.2874 25.6647 0 0 0 C 2 
513 171 1 14.8666 27.6751 26.2095 0 0 0 C 1 
514 172 1 19.1196 25.8464 26.0087 0 0 0 C 1 
515 172 2 20.5397 26.2874 25.6647 0 0 0 C 2 
516 172 1 20.8666 27.6751 26.2095 0 0 0 C 1 
517 173 1 25.1196 25.8464 26.0087 0 0 0 C 1 
518 173 2 26.5397 26.2874 25.6647 0 0 0 C 2 
519 173 1 26.8666 27.6751 26.2095 0 0 0 C 1 
520 174 1 31.1196 25.8464 26.0087 0 0 0 C 1 
521 174 2 32.5397 26.2874 25.6647 0 0 0 C 2 
522 174 1 32.8666 27.6751 26.2095 0 0 0 C 1 
523 175 1 1.11965 31.8464 26.0087 0 0 0 C 1 
524 175 2 2.53972 32.2874 25.6647 0 0 0 C 2 
525 175 1 2.86663 33.6751 26.2095 0 0 0 C 1 
526 176 1 7.11965 31.8464 26.0087 0 0 0 C 1 
527 176 2 8.53972 32.2874 25.6647 0 0 0 C 2 
528 176 1 8.86663 33.6751 26.2095 0 0 0 C 1 
529 177 1 13.1196 31.8464 26.0087 0 0 0 C 1 
530 177 2 14.5397 32.2874 25.6647 0 0 0 C 2 
531 177 1 14.8666 33.6751 26.2095 0 0 0 C 1 
532 178 1 19.1196 31.8464 26.0087 0 0 0 C 1 
533 178 2 20.5397 32.2874 25.6647 0 0 0 C 2 
534 178 1 20.8666 33.6751 26.2095 0 0 0 C 1 
535 179 1 25.1196 31.8464 26.0087 0 0 0 C 1 
536 179 2 26.5397 32.2874 25.6647 0 0 0 C 2 
537 179 1 26.8666 33.6751 26.2095 0 0 0 C 1 
538 180 1 31.1196 31.8464 26.0087 0 0 0 C 1 
539 180 2 32.5397 32.2874 25.6647 0 0 0 C 2 
540 180 1 32.8666 33.6751 26.2095 0 0 0 C 1 
541 181 1 1.11965 1.84644 32.0087 0 0 0 C 1 
542 181 2 2.53972 2.28742 31.6647 0 0 0 C 2 
543 181 1 2.86663 3.67514 32.2095 0 0 0 C 1 
544 182 1 7.11965 1.84644 32.0087 0 0 0 C 1 
545 182 2 8.53972 2.28742 31.6647 0 0 0 C 2 
546 182 1 8.86663 3.67514 32.2095 0 0 0 C 1 
547 183 1 13.1196 1.84644 32.0087 0 0 0 C 1 
548 183 2 14.5397 2.28742 31.6647 0 0 0 C 2 
549 183 1 14.8666 3.67514 32.2095 0 0 0 C 1 
550 184 1 19.1196 1.84644 32.0087 0 0 0 C 1 
551 184 2 20.5397 2.28742 31.6647 0 0 0 C 2 
552 184 1 20.8666 3.67514 32.2095 0 0 0 C 1 
553 185 1 25.1196 1.84644 32.0087 0 0 0 C 1 
554 185 2 26.5397 2.28742 31.6647 0 0 0 C 2 
555 185 1 26.8666 3.67514 32.2095 0 0 0 C 1 
556 186 1 31.1196 1.84644 32.0087 0 0 0 C 1 
557 186 2 32.5397 2.28742 31.6647 0 0 0 C 2 
558 186 1 32.8666 3.67514 32.2095 0 0 0 C 1 
559 187 1 1.11965 7.84644 32.0087 0 0 0 C 1 
560 187 2 2.53972 8.28742 31.6647 0 0 0 C 2 
561 187 1 2.86663 9.67514 32.2095 0 0 0 C 1 
562 188 1 7.11965 7.84644 32.0087 0 0 0 C 1 
563 188 2 8.53972 8.28742 31.6647 0 0 0 C 2 
564 188 1 8.86663 9.67514 32.2095 0 0 0 C 1 
565 189 1 13.1196 7.84644 32.0087 0 0 0 C 1 
566 189 2 14.5397 8.28742 31.6647 0 0 0 C 2 
567 189 1 14.8666 9.67514 32.2095 0 0 0 C 1 
568 190 1 19.1196 7.84644 32.0087 0 0 0 C 1 
569 190 2 20.5397 8.28742 31.6647 0 0 0 C 2 
570 190 1 20.8666 9.67514 32.2095 0 0 0 C 1 
571 191 1 25.1196 7.84644 32.0087 0 0 0 C 1 
572 191 2 26.5397 8.28742 31.6647 0 0 0 C 2 
573 191 1 26.8666 9.67514 32.2095 0 0 0 C 1 
574 192 1 31.1196 7.84644 32.0087 0 0 0 C 1 
575 192 2 32.5397 8.28742 31.6647 0 0 0 C 2 
576 192 1 32.8666 9.67514 32.2095 0 0 0 C 1 
577 193 1 1.11965 13.8464 32.0087 0 0 0 C 1 
578 193 2 2.53972 14.2874 31.6647 0 0 0 C 2 
579 193 1 2.86663 15.6751 32.2095 0 0 0 C 1 
580 194 1 7.11965 13.8464 32.0087 0 0 0 C 1 
581 194 2 8.53972 14.2874 31.6647 0 0 0 C 2 
582 194 1 8.86663 15.6751 32.2095 0 0 0 C 1 
583 195 1 13.1196 13.8464 32.0087 0 0 0 C 1 
584 195 2 14.5397 14.2874 31.6647 0 0 0 C 2 
585 195 1 14.8666 15.6751 32.2095 0 0 0 C 1 
586 196 1 19.1196 13.8464 32.0087 0 0 0 C 1 
587 196 2 20.5397 14.2874 31.6647 0 0 0 C 2 
588 196 1 20.8666 15.6751 32.2095 0 0 0 C 1 
589 197 1 25.1196 13.8464 32.0087 0 0 0 C 1 
590 197 2 26.5397 14.2874 31.6647 0 0 0 C 2 
591 197 1 26.8666 15.6751 32.2095 0 0 0 C 1 
592 198 1 31.1196 13.8464 32.0087 0 0 0 C 1 
593 198 2 32.5397 14.2874 31.6647 0 0 0 C 2 
594 198 1 32.8666 15.6751 32.2095 0 0 0 C 1 
595 199 1 1.11965 19.8464 32.0087 0 0 0 C 1 
596 199 2 2.53972 20.2874 31.6647 0 0 0 C 2 
597 199 1 2.86663 21.6751 32.2095 0 0 0 C 1 
598 200 1 7.11965 19.8464 32.0087 0 0 0 C 1 
599 200 2 8.53972 20.2874 31.6647 0 0 0 C 2 
600 200 1 8.86663 21.6751 32.2095 0 0 0 C 1 
601 201 1 13.1196 19.8464 32.0087 0 0 0 C 1 
602 201 2 14.5397 20.2874 31.6647 0 0 0 C 2 
603 201 1 14.8666 21.6751 32.2095 0 0 0 C 1 
604 202 1 19.1196 19.8464 32.0087 0 0 0 C 1 
605 202 2 20.5397 20.2874 31.6647 0 0 0 C 2 
606 202 1 20.8666 21.6751 32.2095 0 0 0 C 1 
607 203 1 25.1196 19.8464 32.0087 0 0 0 C 1 
608 203 2 26.5397 20.2874 31.6647 0 0 0 C 2 
609 203 1 26.8666 21.6751 32.2095 0 0 0 C 1 
610 204 1 31.1196 19.8464 32.0087 0 0 0 C 1 
611 204 2 32.5397 20.2874 31.6647 0 0 0 C 2 
612 204 1 32.8666 21.6751 32.2095 0 0 0 C 1 
613 205 1 1.11965 25.8464 32.0087 0 0 0 C 1 
614 205 2 2.53972 26.2874 31.6647 0 0 0 C 2 
615 205 1 2.86663 27.6751 32.2095 0 0 0 C 1 
616 206 1 7.11965 25.8464 32.0087 0 0 0 C 1 
617 206 2 8.53972 26.2874 31.6647 0 0 0 C 2 
618 206 1 8.86663 27.6751 32.2095 0 0 0 C 1 
619 207 1 13.1196 25.8464 32.0087 0 0 0 C 1 
620 207 2 14.5397 26.2874 31.6647 0 0 0 C 2 
621 207 1 14.8666 27.6751 32.2095 0 0 0 C 1 
622 208 1 19.1196 25.8464 32.0087 0 0 0 C 1 
623 208 2 20.5397 26.2874 31.6647 0 0 0 C 2 
624 208 1 20.8666 27.6751 32.2095 0 0 0 C 1 
625 209 1 25.1196 25.8464 32.0087 0 0 0 C 1 
626 209 2 26.5397 26.2874 31.6647 0 0 0 C 2 
627 209 1 26.8666 27.6751 32.2095 0 0 0 C 1 
628 210 1 31.1196 25.8464 32.0087 0 0 0 C 1 
629 210 2 32.5397 26.2874 31.6647 0 0 0 C 2 
630 210 1 32.8666 27.6751 32.2095 0 0 0 C 1 
631 211 1 1.11965 31.8464 32.0087 0 0 0 C 1 
632 211 2 2.53972 32.2874 31.6647 0 0 0 C 2 
633 211 1 2.86663 33.6751 32.2095 0 0 0 C 1 
634 212 1 7.11965 31.8464 32.0087 0 0 0 C 1 
635 212 2 8.53972 32.2874 31.6647 0 0 0 C 2 
636 212 1 8.86663 33.6751 32.2095 0 0 0 C 1 
637 213 1 13.1196 31.8464 32.0087 0 0 0 C 1 
638 213 2 14.5397 32.2874 31.6647 0 0 0 C 2 
639 213 1 14.8666 33.6751 32.2095 0 0 0 C 1 
640 214 1 19.1196 31.8464 32.0087 0 0 0 C 1 
641 214 2 20.5397 32.2874 31.6647 0 0 0 C 2 
642 214 1 20.8666 33.6751 32.2095 0 0 0 C 1 
643 215 1 25.1196 31.8464 32.0087 0 0 0 C 1 
644 215 2 26.5397 32.2874 31.6647 0 0 0 C 2 
645 215 1 26.8666 33.6751 32.2095 0 0 0 C 1 
646 216 1 31.1196 31.8464 32.0087 0 0 0 C 1 
647 216 2 32.5397 32.2874 31.6647 0 0 0 C 2 
648 216 1 32.8666 33.6751 32.2095 0 0 0 C 1 
ITEM: TIMESTEP
20
ITEM: NUMBER OF ATOMS
648
ITEM: BOX BOUNDS pp pp pp
0.00648481 35.9935
0.00648481 35.9935
0.00648481 35.9935
ITEM: ATOMS id mol type x y z ix iy iz element type 
1 1 1 1.20411 1.91267 1.98834 0 0 0 C 1 
2 1 2 2.67371 2.26517 1.69824 0 0 0 C 2 
3 1 1 2.93313 3.5878 2.33003 0 0 0 C 1 
4 2 1 7.0636 1.80186 1.96151 0 0 0 C 1 
5 2 2 8.51363 2.26153 1.75378 0 0 0 C 2 
6 2 1 8.84735 3.69972 2.20421 0 0 0 C 1 
7 3 1 13.0864 1.81831 1.92435 0 0 0 C 1 
8 3 2 14.5213 2.28127 1.66552 0 0 0 C 2 
9 3 1 14.8664 3.65659 2.24059 0 0 0 C 1 
10 4 1 19.1073 1.8493 2.02084 0 0 0 C 1 
11 4 2 20.5325 2.28626 1.71336 0 0 0 C 2 
12 4 1 20.8553 3.72006 2.1657 0 0 0 C 1 
13 5 1 25.1489 1.81635 1.88362 0 0 0 C 1 
14 5 2 26.5846 2.29601 1.70733 0 0 0 C 2 
15 5 1 26.8816 3.7277 2.20816 0 0 0 C 1 
16 6 1 31.1105 1.81418 2.01053 0 0 0 C 1 
17 6 2 32.5202 2.27988 1.69628 0 0 0 C 2 
18 6 1 32.892 3.63349 2.33364 0 0 0 C 1 
19 7 1 1.14146 7.86977 2.044 0 0 0 C 1 
20 7 2 2.54086 8.27819 1.59613 0 0 0 C 2 
21 7 1 2.83428 9.59028 2.2755 0 0 0 C 1 
22 8 1 7.06114 7.90824 1.98152 0 0 0 C 1 
23 8 2 8.52593 8.26343 1.66868 0 0 0 C 2 