LAMMPS data file via write_data, version 10 Aug 2015, timestep = 40000

648 atoms
3 atom types
432 bonds
3 bond types
216 angles
1 angle types

6.5086861187561773e-01 2.5949131388124474e+01 xlo xhi
6.5086861187561773e-01 2.5949131388124474e+01 ylo yhi
6.5086861187561773e-01 2.5949131388124474e+01 zlo zhi

Masses

1 15.999
2 1.008
3 15.035

Atoms # full

201 67 2 4.3500000000000000e-01 5.6616263522466461e+00 2.2347470871897785e+00 6.4879218078005438e+00 0 1 0
93 31 2 4.3500000000000000e-01 1.3564008561927530e+00 3.1273618773912575e+00 1.7151309952463465e+00 0 1 0
200 67 1 -6.9999999999999996e-01 6.0464117226833611e+00 1.4099196950561523e+00 6.8022190867715357e+00 0 1 0
95 32 1 -6.9999999999999996e-01 5.1222518707089657e+00 3.9826288922465420e+00 6.1718827418477495e+00 0 1 0
94 32 3 2.6500000000000001e-01 4.5347113319567640e+00 3.7984866167009579e+00 4.8517475028997366e+00 0 1 0
92 31 1 -6.9999999999999996e-01 2.3054651324342661e+00 2.8550962568466676e+00 1.7240920025186919e+00 0 1 0
91 31 3 2.6500000000000001e-01 2.4389917406889312e+00 1.5366117194501054e+00 2.1663937045853823e+00 0 1 0
544 182 3 2.6500000000000001e-01 6.9304240066528520e+00 3.1680397021452653e+00 1.4133265315427819e+00 0 0 1
272 91 1 -6.9999999999999996e-01 2.5059273401611286e+01 4.0509182896025528e+00 6.7966009606439952e+00 -1 1 0
273 91 2 4.3500000000000000e-01 2.5383930347185995e+01 3.2715945667747137e+00 7.1901301403716547e+00 -1 1 0
126 42 2 4.3500000000000000e-01 1.0769954260068026e+00 7.3239321899697907e-01 7.0676048648390859e+00 1 0 0
318 106 2 4.3500000000000000e-01 1.1896926284201827e+01 1.1639258042980292e+00 7.2760789165362336e+00 0 1 0
316 106 3 2.6500000000000001e-01 1.0631216396873029e+01 2.4173046696507852e+00 7.9312265221774210e+00 0 1 0
317 106 1 -6.9999999999999996e-01 1.1156883776339660e+01 1.1105564952050371e+00 7.9003865598684193e+00 0 1 0
619 207 3 2.6500000000000001e-01 7.9403755693476983e+00 6.0519359729693472e+00 4.6366436000851117e+00 0 0 1
199 67 3 2.6500000000000001e-01 7.3235233419368946e+00 1.3525274280802089e+00 6.2491481559192916e+00 0 1 0
548 183 1 -6.9999999999999996e-01 9.9998470314903098e+00 2.5416777381531039e+00 6.6853332197415283e-01 0 0 1
545 182 1 -6.9999999999999996e-01 7.6274686584648910e+00 3.6875767965464692e+00 2.5543764625962410e+01 0 0 0
546 182 2 4.3500000000000000e-01 8.5525478446643053e+00 3.4355298396448291e+00 2.5706076470303337e+01 0 0 0
549 183 2 4.3500000000000000e-01 1.0525895170500991e+01 2.5486462760377755e+00 2.5156405444199891e+01 0 0 0
542 181 1 -6.9999999999999996e-01 1.1240408642646061e+01 2.5712389286899038e+00 2.3592986891606323e+01 0 0 0
547 183 3 2.6500000000000001e-01 1.0289529028161038e+01 1.3931486423542601e+00 1.4136983551261078e+00 0 0 1
208 70 3 2.6500000000000001e-01 1.3484450532919618e+01 1.1920239030645134e+00 4.6375754222156624e+00 0 1 0
209 70 1 -6.9999999999999996e-01 1.3092471632913190e+01 1.7513596244927192e+00 5.9087493468358812e+00 0 1 0
210 70 2 4.3500000000000000e-01 1.3334518822683791e+01 2.6742497116841459e+00 5.9063902415750604e+00 0 1 0
629 210 1 -6.9999999999999996e-01 1.7739839578066402e+01 6.5604993569441303e+00 3.4498068934220076e+00 0 1 1
319 107 3 2.6500000000000001e-01 1.3354959882655043e+01 5.1288702935095749e+00 4.7878057456245031e+00 0 1 0
320 107 1 -6.9999999999999996e-01 1.4303255642939192e+01 4.6612832902807444e+00 5.7561323695505600e+00 0 1 0
321 107 2 4.3500000000000000e-01 1.4299200535179329e+01 5.2540743661237022e+00 6.5169397245044030e+00 0 1 0
138 46 2 4.3500000000000000e-01 1.9610361144424964e+01 6.1578816711633859e+00 4.2566511598167107e+00 0 0 0
630 210 2 4.3500000000000000e-01 1.6947297457122204e+01 6.5528348113412509e+00 2.9128800387662217e+00 0 1 1
628 210 3 2.6500000000000001e-01 1.7402049795306283e+01 6.3098357976929087e+00 4.7798573659126200e+00 0 1 1
122 41 1 -6.9999999999999996e-01 1.5842667864083595e+01 6.6570633128777974e+00 1.0555395291634624e+00 0 0 0
121 41 3 2.6500000000000001e-01 1.4549241917175976e+01 6.3784023411756676e+00 1.4968777826372852e+00 0 0 0
337 113 3 2.6500000000000001e-01 1.7292059516024345e+01 2.5803246963794022e+00 6.4336636513784375e+00 0 0 0
137 46 1 -6.9999999999999996e-01 2.0520693318339589e+01 6.1299100423949699e+00 4.5803878719271562e+00 0 0 0
118 40 3 2.6500000000000001e-01 2.1094801273900991e+01 2.9177371713315092e+00 3.5241582928498558e+00 0 0 0
271 91 3 2.6500000000000001e-01 2.4608403312979512e+01 3.7833610710870373e+00 5.5243249628250171e+00 -1 1 0
120 40 2 4.3500000000000000e-01 2.1108247293187887e+01 4.1049063513243613e+00 4.8936877896454751e+00 0 0 0
119 40 1 -6.9999999999999996e-01 2.1115862259607063e+01 3.1709911285486276e+00 4.9260267081053923e+00 0 0 0
231 77 2 4.3500000000000000e-01 2.1738974630163192e+01 3.6642319234143850e+00 7.2708006428002667e+00 0 0 0
17 6 1 -6.9999999999999996e-01 2.4970791842970741e+01 3.8180553340364907e+00 1.8194200578942077e+00 0 0 0
16 6 3 2.6500000000000001e-01 2.4057202124768715e+01 4.0201739917721326e+00 7.7421613102316855e-01 0 0 0
18 6 2 4.3500000000000000e-01 2.5162130490138573e+01 4.6666201159829965e+00 2.2208955152055507e+00 0 0 0
76 26 3 2.6500000000000001e-01 4.5373882357082058e+00 7.4206199602612495e+00 3.5602174985463195e+00 0 0 0
6 2 2 4.3500000000000000e-01 5.6284360652519769e+00 6.9561833460293760e+00 2.5223774209623151e+01 0 0 -1
5 2 1 -6.9999999999999996e-01 6.1765304141884538e+00 7.1471076448581972e+00 6.7000927001758392e-01 0 0 0
78 26 2 4.3500000000000000e-01 5.9291719824262277e+00 7.6062526897586622e+00 2.2538983112587063e+00 0 0 0
77 26 1 -6.9999999999999996e-01 5.8363811817764972e+00 7.8130426914415754e+00 3.2050709583304964e+00 0 0 0
565 189 3 2.6500000000000001e-01 7.1407910607711562e+00 1.4314980861326337e+01 2.0434955714832315e+00 0 0 1
4 2 3 2.6500000000000001e-01 7.5646050037776646e+00 7.0267896952719289e+00 2.5616213713567831e+01 0 0 -1
621 207 2 4.3500000000000000e-01 7.2619979956958840e+00 7.6618652940089600e+00 3.9292375564046975e+00 0 0 1
162 54 2 4.3500000000000000e-01 9.4735353393878552e-01 1.1979697675374483e+01 3.6066908631081800e+00 1 0 0
555 185 2 4.3500000000000000e-01 2.5947667022497804e+01 9.5216799268994148e+00 4.6295938895877704e+00 0 0 1
554 185 1 -6.9999999999999996e-01 2.5349631406328292e+01 8.8391268699951624e+00 4.3593973467830693e+00 0 0 1
161 54 1 -6.9999999999999996e-01 1.2982053152736484e+00 1.1188589011877342e+01 4.0326874784755535e+00 1 0 0
66 22 2 4.3500000000000000e-01 1.2875549137448839e+01 1.3541994319007690e+01 3.9954824192790874e+00 0 0 0
64 22 3 2.6500000000000001e-01 1.3637682415529364e+01 1.2674879586511965e+01 2.4447640958731895e+00 0 0 0
59 20 1 -6.9999999999999996e-01 1.0581317562233929e+01 1.3704715509373747e+01 4.6192521218888345e+00 0 0 0
58 20 3 2.6500000000000001e-01 9.6065607577072658e+00 1.2738597773812632e+01 4.2508565792720514e+00 0 0 0
60 20 2 4.3500000000000000e-01 1.0363519927742617e+01 1.4009686006076480e+01 5.5081989869253736e+00 0 0 0
620 207 1 -6.9999999999999996e-01 8.1093820184189394e+00 7.4696154038116260e+00 4.3170909449271289e+00 0 0 1
63 21 2 4.3500000000000000e-01 9.6853724526297462e+00 8.3713400260199684e+00 5.7061644570582626e+00 0 0 0
65 22 1 -6.9999999999999996e-01 1.3443155497402294e+01 1.2783721719706243e+01 3.8467319056536731e+00 0 0 0
45 15 2 4.3500000000000000e-01 1.4085658693248867e+01 1.1481581277836611e+01 5.0042918964709262e+00 0 0 0
476 159 1 -6.9999999999999996e-01 9.6933461364484526e+00 1.2177405601012572e+01 2.5763188487749119e+01 0 0 0
44 15 1 -6.9999999999999996e-01 1.4352307317861008e+01 1.0634293769262413e+01 5.3191971911331928e+00 0 0 0
43 15 3 2.6500000000000001e-01 1.5672842254644198e+01 1.0295304022383471e+01 4.9420165167950598e+00 0 0 0
25 9 3 2.6500000000000001e-01 1.8314397542804279e+01 1.1183259662613116e+01 1.7011852924115289e+00 0 0 0
376 126 3 2.6500000000000001e-01 2.0637653240461411e+01 1.1575296772697838e+01 6.0131628022881758e+00 0 0 0
26 9 1 -6.9999999999999996e-01 1.9279866635062653e+01 1.1895773896295497e+01 9.2025842987378170e-01 0 0 0
27 9 2 4.3500000000000000e-01 1.9377277285666466e+01 1.2787724489493561e+01 1.2290575732968025e+00 0 0 0
136 46 3 2.6500000000000001e-01 2.1343285922112393e+01 6.9103664765823716e+00 3.6721660290931530e+00 0 0 0
553 185 3 2.6500000000000001e-01 2.4216671788309306e+01 8.8364904936637068e+00 5.2207970678201097e+00 0 0 1
160 54 3 2.6500000000000001e-01 2.7009874219369365e+00 1.1215662982878110e+01 3.9846642583624039e+00 1 0 0
377 126 1 -6.9999999999999996e-01 2.0969478466460096e+01 1.1332491297180194e+01 7.3879942656358262e+00 0 0 0
37 13 3 2.6500000000000001e-01 2.3088681242503121e+01 1.0340810215356759e+01 7.7517108861618544e-01 -1 0 0
238 80 3 2.6500000000000001e-01 2.5435543572882558e+01 1.4239816583225943e+01 1.7662768414099790e+00 -1 0 0
239 80 1 -6.9999999999999996e-01 2.5693283919571734e+01 1.3487345736943070e+01 2.9691046086969619e+00 -1 0 0
240 80 2 4.3500000000000000e-01 2.5947448577222865e+01 1.4085333607976995e+01 3.7037227553863032e+00 -1 0 0
205 69 3 2.6500000000000001e-01 5.0881116791450047e+00 1.7617951092897826e+01 6.3022996414864725e+00 0 0 0
206 69 1 -6.9999999999999996e-01 4.2245294108821749e+00 1.6703964635258068e+01 5.6224974594914316e+00 0 0 0
42 14 2 4.3500000000000000e-01 4.2739391837778182e+00 1.5902963943766604e+01 3.9134525170112675e+00 0 0 0
41 14 1 -6.9999999999999996e-01 3.8749508226440765e+00 1.5813021798325575e+01 3.0286306767317286e+00 0 0 0
40 14 3 2.6500000000000001e-01 3.5312417741617113e+00 1.7105918307944663e+01 2.5686217123501001e+00 0 0 0
491 164 1 -6.9999999999999996e-01 1.3975907574184818e+00 1.4913507647458079e+01 4.9605145193147964e+00 0 0 1
492 164 2 4.3500000000000000e-01 2.3398371092931605e+00 1.5101702718671586e+01 4.9246810679377431e+00 0 0 1
490 164 3 2.6500000000000001e-01 2.5845557217331901e+01 1.5996136481952846e+01 5.3178413070222197e+00 -1 0 1
207 69 2 4.3500000000000000e-01 4.2252340707527400e+00 1.5911572420116327e+01 6.1677224273539757e+00 0 0 0
394 132 3 2.6500000000000001e-01 5.1580405215335627e+00 1.3108396624785941e+01 5.5742498039198205e+00 1 0 0
400 134 3 2.6500000000000001e-01 8.5335492773911525e+00 1.6359065028444697e+01 4.8051700898085512e+00 0 0 1
475 159 3 2.6500000000000001e-01 1.0524743947412091e+01 1.3181569084215715e+01 2.5184723980213526e+01 0 0 0
104 35 1 -6.9999999999999996e-01 1.1017931583071013e+01 1.8812633339643213e+01 5.7096235382587457e+00 0 0 0
401 134 1 -6.9999999999999996e-01 8.5702874579024240e+00 1.7529758228131477e+01 5.6056784845778651e+00 0 0 1
402 134 2 4.3500000000000000e-01 9.4536248715279019e+00 1.7797196359325149e+01 5.7381425449895049e+00 0 0 1
103 35 3 2.6500000000000001e-01 1.1811424705726742e+01 1.8455990571627318e+01 4.6027889940021147e+00 0 0 0
105 35 2 4.3500000000000000e-01 1.1000743414068994e+01 1.9772337695305325e+01 5.7325167631049565e+00 0 0 0
67 23 3 2.6500000000000001e-01 1.7165006322962704e+01 1.4122907272049151e+01 6.0465599717849958e+00 0 0 0
178 60 3 2.6500000000000001e-01 1.7167996468548466e+01 1.8476382758188947e+01 5.9204724961664965e+00 0 0 0
179 60 1 -6.9999999999999996e-01 1.7451769242432739e+01 1.7298466189582129e+01 5.1434553964236844e+00 0 0 0
68 23 1 -6.9999999999999996e-01 1.8172155503339106e+01 1.5040024446217327e+01 6.4410833455266037e+00 0 0 0
69 23 2 4.3500000000000000e-01 1.7954879676827161e+01 1.5875225036157486e+01 5.9934193838896288e+00 0 0 0
180 60 2 4.3500000000000000e-01 1.6928409736551068e+01 1.7271134455305727e+01 4.3362114880062919e+00 0 0 0
623 208 1 -6.9999999999999996e-01 1.5633454399704492e+01 1.6692393090849492e+01 3.2147851220125201e+00 0 0 1
196 66 3 2.6500000000000001e-01 2.0513485162249715e+01 1.6652600064968546e+01 3.1824172555176680e+00 0 0 0
280 94 3 2.6500000000000001e-01 2.1446015730933105e+01 1.4889672004459559e+01 7.5639090125928563e+00 0 0 0
599 200 1 -6.9999999999999996e-01 1.8925796231881328e+01 1.4680677349817863e+01 1.0872722234494296e+00 0 0 1
600 200 2 4.3500000000000000e-01 1.9631375141778953e+01 1.5241032183269692e+01 1.4241434852519719e+00 0 0 1
197 66 1 -6.9999999999999996e-01 2.0712592035271442e+01 1.6359477534795602e+01 1.7832899663372870e+00 0 0 0
198 66 2 4.3500000000000000e-01 2.0749475453615531e+01 1.7224888691337362e+01 1.3405122018409026e+00 0 0 0
214 72 3 2.6500000000000001e-01 2.8774962372380029e+00 2.4575784865803477e+01 5.6364520234465472e+00 1 0 0
322 108 3 2.6500000000000001e-01 2.5293433103843505e+01 2.0550945959629971e+01 5.0999037768498630e+00 0 0 1
509 170 1 -6.9999999999999996e-01 5.2704156590611966e+00 2.1665344967842948e+01 3.8079416795258694e+00 0 0 1
510 170 2 4.3500000000000000e-01 5.5994275081884464e+00 2.1961669591846352e+01 4.6767171249647106e+00 0 0 1
508 170 3 2.6500000000000001e-01 3.9052167926359567e+00 2.1179519008833324e+01 3.9903245063585842e+00 0 0 1
215 72 1 -6.9999999999999996e-01 1.4540537868014116e+00 2.4909207017057838e+01 5.8996771601093529e+00 1 0 0
113 38 1 -6.9999999999999996e-01 5.8029937187011971e+00 2.2161820978517873e+01 6.5039546027326747e+00 0 -1 0
216 72 2 4.3500000000000000e-01 9.5615242196422934e-01 2.4697339983147927e+01 5.1106054732805752e+00 1 0 0
114 38 2 4.3500000000000000e-01 5.8202501088777954e+00 2.2974219004197167e+01 7.0681205195877173e+00 0 -1 0
133 45 3 2.6500000000000001e-01 2.5267551403022608e+01 2.4474330052606675e+01 2.5020793128857704e+01 0 -1 -1
607 203 3 2.6500000000000001e-01 8.0985886769901239e+00 2.3703279267404625e+01 3.8336407728901825e+00 0 0 1
528 176 2 4.3500000000000000e-01 6.6277822814880833e+00 2.0458969337962763e+01 3.5182272463710706e+00 0 0 1
527 176 1 -6.9999999999999996e-01 7.4923542601429203e+00 2.0072563111935629e+01 3.3589702071666738e+00 0 0 1
526 176 3 2.6500000000000001e-01 7.2807667452586866e+00 1.9112261439930904e+01 2.3196772412889217e+00 0 0 1
608 203 1 -6.9999999999999996e-01 8.7307978418510963e+00 2.2470408148477311e+01 4.0610193051867807e+00 0 0 1
606 202 2 4.3500000000000000e-01 1.0057504929917544e+01 2.2030879992107032e+01 4.6711587951775773e+00 0 0 1
609 203 2 4.3500000000000000e-01 8.2140868202725308e+00 2.1748196027542519e+01 3.6777523094948470e+00 0 0 1
102 34 2 4.3500000000000000e-01 1.0554742636360135e+01 2.3101433903968022e+01 2.3441403192633047e+01 0 0 -1
101 34 1 -6.9999999999999996e-01 1.1055208654760108e+01 2.2324330183144248e+01 2.3638556747333858e+01 0 0 -1
605 202 1 -6.9999999999999996e-01 1.0806058940376724e+01 2.1745025014519285e+01 5.2145663415223495e+00 0 0 1
594 198 2 4.3500000000000000e-01 1.1880044544685017e+01 2.2644889032957671e+01 2.5256828364894453e+01 0 0 0
112 38 3 2.6500000000000001e-01 6.8263400824621083e+00 2.1393043840360249e+01 7.0499469212897639e+00 0 -1 0
604 202 3 2.6500000000000001e-01 1.1086844942137320e+01 2.2876958579105867e+01 6.0264493186073684e+00 0 0 1
88 30 3 2.6500000000000001e-01 1.5202660558835872e+01 2.4519389031518294e+01 1.4417300417095888e+00 0 0 0
130 44 3 2.6500000000000001e-01 2.0864884695943395e+01 2.0645963294580760e+01 4.9807126149756158e+00 -1 -1 0
592 198 3 2.6500000000000001e-01 1.1447527517443012e+01 2.2218292314915800e+01 1.8182623531542634e+00 0 0 1
593 198 1 -6.9999999999999996e-01 1.2081592954177422e+01 2.3010771189415955e+01 8.2194584355422806e-01 0 0 1
90 30 2 4.3500000000000000e-01 1.3968594474852541e+01 2.3480502698985816e+01 2.5705447004115911e+01 0 0 -1
89 30 1 -6.9999999999999996e-01 1.4913709302349259e+01 2.3749743282528094e+01 2.5654103821977138e+01 0 0 -1
132 44 2 4.3500000000000000e-01 2.2319647813458964e+01 2.1655713342704487e+01 5.7116662664538245e+00 -1 -1 0
131 44 1 -6.9999999999999996e-01 2.2170248483211218e+01 2.1137248630400819e+01 4.9038673538565920e+00 -1 -1 0
56 19 1 -6.9999999999999996e-01 2.2494531585095046e+01 2.0997630444879135e+01 7.8933941885440078e+00 -1 0 0
324 108 2 4.3500000000000000e-01 2.3821922343581193e+01 2.0471604394689543e+01 3.7954571843694525e+00 0 0 1
323 108 1 -6.9999999999999996e-01 2.4762123987127850e+01 2.0255817737741147e+01 3.7914245241996389e+00 0 0 1
432 144 2 4.3500000000000000e-01 2.5400633525171209e+01 2.0476940824924803e+01 2.1746738127817085e+00 0 0 1
73 25 3 2.6500000000000001e-01 2.3598568701266039e+01 2.3994867171075576e+01 3.4122097067097985e+00 -1 0 0
74 25 1 -6.9999999999999996e-01 2.4847044569692784e+01 2.4689940962662597e+01 3.2678052417760708e+00 -1 0 0
75 25 2 4.3500000000000000e-01 2.4904483002560575e+01 2.4940569905883592e+01 2.3335233430317377e+00 -1 0 0
431 144 1 -6.9999999999999996e-01 2.5886137249944177e+01 2.0681010563893956e+01 1.3624669580972459e+00 0 0 1
430 144 3 2.6500000000000001e-01 2.5386647444535690e+01 2.0112693388283972e+01 2.5438412903941128e+01 0 0 0
502 168 3 2.6500000000000001e-01 1.8669555821059511e+01 2.4799164534935322e+01 2.4134391805625320e+01 0 0 0
96 32 2 4.3500000000000000e-01 4.5898343590475701e+00 4.6750628491065083e+00 6.5937711860740338e+00 0 1 0
108 36 2 4.3500000000000000e-01 2.5610767373654596e+01 5.6699931647204824e+00 7.5397737400361819e+00 0 1 0
107 36 1 -6.9999999999999996e-01 7.8335128809082266e-01 6.4265797286617810e+00 7.9235388023869335e+00 1 1 0
155 52 1 -6.9999999999999996e-01 3.3326140472685490e+00 6.2118033206390111e+00 7.0997368735769628e+00 0 0 0
156 52 2 4.3500000000000000e-01 2.4410225851250384e+00 6.4461288880774887e+00 7.3863767274389085e+00 0 0 0
202 68 3 2.6500000000000001e-01 5.6067967574217290e+00 3.8589986114543615e+00 1.0003551891056729e+01 0 1 0
375 125 2 4.3500000000000000e-01 3.7511858066068746e+00 6.7290247089747233e+00 1.2652163945724146e+01 1 0 0
374 125 1 -6.9999999999999996e-01 4.1059679351212655e+00 7.6306564781150525e+00 1.2523366571571634e+01 1 0 0
168 56 2 4.3500000000000000e-01 2.3319337100718371e+00 4.5065826116244470e+00 1.2440598916883298e+01 0 0 0
167 56 1 -6.9999999999999996e-01 2.5103452956223524e+00 5.4587183924807059e+00 1.2293745613090183e+01 0 0 0
219 73 2 4.3500000000000000e-01 2.5161607985903349e+00 2.3694710482393164e+00 1.2424910770377609e+01 0 0 0
203 68 1 -6.9999999999999996e-01 5.9355831159530590e+00 2.7048323228948736e+00 1.0798927538886669e+01 0 1 0
373 125 3 2.6500000000000001e-01 5.4861069922190726e+00 7.4849260176566013e+00 1.2784276617963981e+01 1 0 0
218 73 1 -6.9999999999999996e-01 1.7278475920478147e+00 2.8656533067188996e+00 1.2286965779795850e+01 0 0 0
222 74 2 4.3500000000000000e-01 4.6890019754008412e+00 1.6722850958590951e+00 1.1908318744603120e+01 0 0 0
221 74 1 -6.9999999999999996e-01 4.0271401695354054e+00 1.1421703821720066e+00 1.2396080090769857e+01 0 0 0
124 42 3 2.6500000000000001e-01 2.3526688050172146e+00 2.0196967409181701e+00 8.1046669479460416e+00 1 0 0
125 42 1 -6.9999999999999996e-01 1.0665280867194635e+00 1.4938079144661576e+00 7.6416767927930325e+00 1 0 0
217 73 3 2.6500000000000001e-01 9.5069900681021102e-01 1.9884094521749649e+00 1.1496729524429256e+01 0 0 0
204 68 2 4.3500000000000000e-01 6.8747027235117519e+00 2.8038893681613604e+00 1.1001620112553351e+01 0 1 0
344 115 1 -6.9999999999999996e-01 8.7702455088547566e+00 3.7785299594177730e+00 1.1982380727639679e+01 0 0 0
343 115 3 2.6500000000000001e-01 9.8540694326167149e+00 2.9285619644861058e+00 1.2229768534223245e+01 0 0 0
262 88 3 2.6500000000000001e-01 8.2147265509978276e+00 6.3806004957904099e+00 8.5647775974581037e+00 0 0 0
263 88 1 -6.9999999999999996e-01 9.4211944476554645e+00 7.1264183966686456e+00 8.6900490393386569e+00 0 0 0
243 81 2 4.3500000000000000e-01 1.1420758597194748e+01 2.5130882480397368e+01 9.0756051557639239e+00 0 -1 0
212 71 1 -6.9999999999999996e-01 1.4850232411194066e+01 5.6409858256965277e+00 8.2719595021252523e+00 0 1 0
213 71 2 4.3500000000000000e-01 1.4744865365672549e+01 6.3906582706916470e+00 8.8124184088219799e+00 0 1 0
339 113 2 4.3500000000000000e-01 1.7314459321966488e+01 1.2629509300693029e+00 7.9072049760695338e+00 0 0 0
338 113 1 -6.9999999999999996e-01 1.7978251985875580e+01 1.7551894195079418e+00 7.4294825666361461e+00 0 0 0
211 71 3 2.6500000000000001e-01 1.5279707705891070e+01 4.6512091844183168e+00 9.1227161965440260e+00 0 1 0
425 142 1 -6.9999999999999996e-01 1.9849696354750698e+01 4.3791738026081113e+00 1.1359459390186446e+01 0 1 0
424 142 3 2.6500000000000001e-01 1.8924349340437956e+01 3.9791213520775930e+00 1.0374027495753761e+01 0 1 0
9 3 2 4.3500000000000000e-01 1.9085797278406012e+01 4.4863656747194858e+00 1.2800239745218899e+01 0 0 -1
285 95 2 4.3500000000000000e-01 1.7184685899054436e+01 3.4611735842493414e+00 1.3090300237095420e+01 0 1 0
8 3 1 -6.9999999999999996e-01 1.8416687360734571e+01 4.4301145420991803e+00 1.3520862246018533e+01 0 0 -1
284 95 1 -6.9999999999999996e-01 1.6428160882928175e+01 2.9785451520415371e+00 1.2779563929031630e+01 0 1 0
426 142 2 4.3500000000000000e-01 2.0683653126725702e+01 3.9362225652471121e+00 1.1192006139979632e+01 0 1 0
283 95 3 2.6500000000000001e-01 1.6661677885398454e+01 1.5913611021940868e+00 1.2755278814082232e+01 0 1 0
226 76 3 2.6500000000000001e-01 2.2214322140736762e+01 6.7671244869840494e+00 1.1553198969436936e+01 0 0 0
229 77 3 2.6500000000000001e-01 2.1444757091114454e+01 5.6834067893806175e+00 7.4822530769918814e+00 0 0 0
166 56 3 2.6500000000000001e-01 1.3396621430060880e+00 6.0509177693900744e+00 1.1802111732690099e+01 0 0 0
230 77 1 -6.9999999999999996e-01 2.1568124174069368e+01 4.3174677065689808e+00 7.9410837855338965e+00 0 0 0
427 143 3 2.6500000000000001e-01 2.3795134800781838e+01 3.9048475819208455e+00 1.0217341378980512e+01 0 1 0
429 143 2 4.3500000000000000e-01 2.2018834415163589e+01 4.2636481388131973e+00 9.6476787979016976e+00 0 1 0
428 143 1 -6.9999999999999996e-01 2.2432222937851783e+01 3.7933861693685351e+00 1.0377873453496468e+01 0 1 0
522 174 2 4.3500000000000000e-01 2.1748010155286202e+01 2.0592444525137101e+00 1.1037301244448047e+01 0 1 0
227 76 1 -6.9999999999999996e-01 2.3188961510273913e+01 6.5843268955214826e+00 1.2599911424154001e+01 0 0 0
228 76 2 4.3500000000000000e-01 2.3290788317981800e+01 7.4090717092311564e+00 1.3089622613721737e+01 0 0 0
355 119 3 2.6500000000000001e-01 2.4377710624743600e+01 3.8079326840354608e+00 1.4414658264269816e+01 0 0 0
391 131 3 2.6500000000000001e-01 2.6563400871285947e+00 1.1663131535733001e+01 8.6276632947338285e+00 1 0 0
154 52 3 2.6500000000000001e-01 4.3074134706552982e+00 7.1421731712494951e+00 7.5115390086248857e+00 0 0 0
471 157 2 4.3500000000000000e-01 3.5451500410659302e+00 9.3474369561677548e+00 1.3144806326304053e+01 0 0 0
171 57 2 4.3500000000000000e-01 7.8485038666762064e+00 1.2196719542162574e+01 1.1399055138718980e+01 0 0 0
469 157 3 2.6500000000000001e-01 1.9045739453288992e+00 1.0310151100818530e+01 1.3381239086938232e+01 0 0 0
392 131 1 -6.9999999999999996e-01 2.4176072044829020e+00 1.2857073543232341e+01 7.9664337328770243e+00 1 0 0
393 131 2 4.3500000000000000e-01 1.5840945429025732e+00 1.3159681850249328e+01 8.3811128977672560e+00 1 0 0
170 57 1 -6.9999999999999996e-01 7.0379717692700483e+00 1.2659385651137212e+01 1.1747290577305238e+01 0 0 0
169 57 3 2.6500000000000001e-01 5.9351970536070899e+00 1.1674011176859189e+01 1.1783971261970553e+01 0 0 0
470 157 1 -6.9999999999999996e-01 3.3157413968454770e+00 1.0218019472442563e+01 1.3448496906886019e+01 0 0 0
61 21 3 2.6500000000000001e-01 1.1384236269872472e+01 9.2583720847897908e+00 5.8191169863497914e+00 0 0 0
264 88 2 4.3500000000000000e-01 9.7957854261564332e+00 7.3532854949511686e+00 7.8295972528420226e+00 0 0 0
62 21 1 -6.9999999999999996e-01 1.0387053838671537e+01 8.4048345376092772e+00 6.3164183693201723e+00 0 0 0
288 96 2 4.3500000000000000e-01 9.6386699818094392e+00 7.9948287103052804e+00 1.0213077524376970e+01 1 0 0
184 62 3 2.6500000000000001e-01 9.9800258856027462e+00 1.1571221645602687e+01 9.8313899779296658e+00 0 0 0
185 62 1 -6.9999999999999996e-01 8.9830733687057673e+00 1.1204835799210628e+01 1.0713521450190571e+01 0 0 0
186 62 2 4.3500000000000000e-01 9.1041311763968427e+00 1.0253388698565036e+01 1.0894137859871748e+01 0 0 0
287 96 1 -6.9999999999999996e-01 9.7578844415107877e+00 8.5321597952162378e+00 1.1022367612895758e+01 1 0 0
181 61 3 2.6500000000000001e-01 1.2886215911172439e+01 1.2751388741692725e+01 7.2624321774125118e+00 0 0 0
182 61 1 -6.9999999999999996e-01 1.1980404169399439e+01 1.3451292633345700e+01 8.0881863254719004e+00 0 0 0
139 47 3 2.6500000000000001e-01 1.4030576738303035e+01 8.8573420310237232e+00 8.4483750141539247e+00 0 0 0
140 47 1 -6.9999999999999996e-01 1.4889360612419507e+01 8.0482714078575057e+00 9.1908083370046061e+00 0 0 0
141 47 2 4.3500000000000000e-01 1.5816046347708483e+01 8.2905227226962221e+00 9.0176853012851339e+00 0 0 0
84 28 2 4.3500000000000000e-01 1.7226849993143873e+01 1.2335081753702374e+01 9.9377376636657377e+00 0 0 0
266 89 1 -6.9999999999999996e-01 1.7321860514624710e+01 9.0804239962974975e+00 8.9809851232594085e+00 0 0 0
267 89 2 4.3500000000000000e-01 1.7206254144923776e+01 1.0021672481522918e+01 9.2321193934630834e+00 0 0 0
83 28 1 -6.9999999999999996e-01 1.6810577892876516e+01 1.1470671938500576e+01 9.8108617699422673e+00 0 0 0
265 89 3 2.6500000000000001e-01 1.8191221952866485e+01 9.0559781688705119e+00 7.8719918102588426e+00 0 0 0
370 124 3 2.6500000000000001e-01 1.8986645158654540e+01 9.4027853029657944e+00 1.2108154345104305e+01 0 0 0
82 28 3 2.6500000000000001e-01 1.6113419726712486e+01 1.1331140873792016e+01 1.1021074535448960e+01 0 0 0
174 58 2 4.3500000000000000e-01 1.4250670643879344e+01 7.7909263812757006e+00 1.1001105990075054e+01 0 0 0
106 36 3 2.6500000000000001e-01 2.5084267128330232e+01 7.2202340221145933e+00 8.5198533678536048e+00 0 1 0
268 90 3 2.6500000000000001e-01 2.3052616926793611e+01 1.0039462204149610e+01 9.4055440296177597e+00 0 0 0
269 90 1 -6.9999999999999996e-01 2.2542163792022897e+01 9.2060105526880864e+00 8.3491090878961494e+00 0 0 0
270 90 2 4.3500000000000000e-01 2.1913130816507312e+01 9.7285843787848432e+00 7.8584705419515348e+00 0 0 0
259 87 3 2.6500000000000001e-01 2.1079352553714955e+01 1.2710168787584529e+01 1.1911611459166293e+01 0 0 0
396 132 2 4.3500000000000000e-01 3.6136115843620069e+00 1.3407669102186921e+01 6.6629869093165919e+00 1 0 0
395 132 1 -6.9999999999999996e-01 4.1682288533670171e+00 1.3974961458732899e+01 6.1224407742759261e+00 1 0 0
615 205 2 4.3500000000000000e-01 6.2940359931500289e+00 1.9519305878982372e+01 1.0611408483055952e+01 0 0 1
635 212 1 -6.9999999999999996e-01 7.0049608433819293e+00 1.7892672062421369e+01 9.8925839069104597e+00 0 0 1
406 136 3 2.6500000000000001e-01 3.0026955348458393e+00 1.5494686333139164e+01 9.7274611828480673e+00 1 0 0
407 136 1 -6.9999999999999996e-01 2.0330148078801678e+00 1.5940909511968599e+01 1.0679520045853218e+01 1 0 0
80 27 1 -6.9999999999999996e-01 1.5806857984315583e+00 1.9068734582856855e+01 1.0630404909345296e+01 0 0 0
634 212 3 2.6500000000000001e-01 7.0580947975341193e+00 1.6912550157868218e+01 1.0925409762640800e+01 0 0 1
81 27 2 4.3500000000000000e-01 2.3503254243023424e+00 1.9641769869670384e+01 1.0429063463679933e+01 0 0 0
408 136 2 4.3500000000000000e-01 2.1385524167638801e+00 1.6899880562030695e+01 1.0678914735449975e+01 1 0 0
183 61 2 4.3500000000000000e-01 1.2475352844791498e+01 1.3926732436589909e+01 8.8000700349193739e+00 0 0 0
626 209 1 -6.9999999999999996e-01 9.7200265174337499e+00 1.4308884259391940e+01 7.0049899733930223e+00 0 0 1
627 209 2 4.3500000000000000e-01 1.0474947828880600e+01 1.4017765873002146e+01 7.5674410622883324e+00 0 0 1
276 92 2 4.3500000000000000e-01 7.8093470490953010e+00 1.3468993432105474e+01 1.3261792878286139e+01 0 0 0
636 212 2 4.3500000000000000e-01 7.8880024559302289e+00 1.7922912835966343e+01 9.5209288114537358e+00 0 0 1
625 209 3 2.6500000000000001e-01 8.6039009447094621e+00 1.4353623175919676e+01 7.8340632784449458e+00 0 0 1
525 175 2 4.3500000000000000e-01 9.8669089837085409e+00 1.7412170574970048e+01 7.9517328462185457e+00 0 0 1
524 175 1 -6.9999999999999996e-01 9.6442280355188341e+00 1.7845661856855436e+01 8.7743543692332207e+00 0 0 1
223 75 3 2.6500000000000001e-01 1.1337989364584111e+01 1.8312476407065645e+01 1.2630408518091304e+01 0 -1 0
523 175 3 2.6500000000000001e-01 9.9770142945924185e+00 1.9219314051974429e+01 8.5866485073014687e+00 0 0 1
274 92 3 2.6500000000000001e-01 9.7494192064538669e+00 1.2984792065978725e+01 1.3447527068203707e+01 0 0 0
296 99 1 -6.9999999999999996e-01 1.3470060018486437e+01 1.4824645506427569e+01 9.7510116940253528e+00 0 0 0
297 99 2 4.3500000000000000e-01 1.3316233811326235e+01 1.5765560331667771e+01 9.6997340511394903e+00 0 0 0
224 75 1 -6.9999999999999996e-01 1.0325567518785517e+01 1.9230865404479680e+01 1.2897323223487827e+01 0 -1 0
278 93 1 -6.9999999999999996e-01 1.4290839016480104e+01 1.9529069333196162e+01 1.0718585540003250e+01 0 0 0
176 59 1 -6.9999999999999996e-01 1.8267078844711222e+01 1.3847236451667602e+01 9.8924053245229207e+00 0 0 0
295 99 3 2.6500000000000001e-01 1.3290460789805660e+01 1.4730619399402960e+01 1.1165357992766742e+01 0 0 0
190 64 3 2.6500000000000001e-01 1.4106787551438108e+01 1.7483984268120992e+01 7.8576012115697917e+00 0 0 0
192 64 2 4.3500000000000000e-01 1.4087302305930081e+01 1.8217498170772991e+01 9.6340511548675209e+00 0 0 0
191 64 1 -6.9999999999999996e-01 1.3699260977170564e+01 1.7434894177710589e+01 9.2082487267064117e+00 0 0 0
177 59 2 4.3500000000000000e-01 1.9042455312417033e+01 1.4038066409356597e+01 9.4211406941973550e+00 0 0 0
175 59 3 2.6500000000000001e-01 1.7690056605632456e+01 1.5145654460716752e+01 1.0128734831119846e+01 0 0 0
279 93 2 4.3500000000000000e-01 1.4723581638987486e+01 1.9290218006224535e+01 1.1500111659237918e+01 0 0 0
385 129 3 2.6500000000000001e-01 1.9312313328663429e+01 2.0145736145061377e+01 8.5984950548718544e+00 0 0 0
378 126 2 4.3500000000000000e-01 2.1221671825735463e+01 1.2182731050248572e+01 7.7480904745643562e+00 0 0 0
388 130 3 2.6500000000000001e-01 2.4709364680405898e+01 1.2542566022163321e+01 6.4298306574099229e+00 0 0 0
389 130 1 -6.9999999999999996e-01 2.4984891089985609e+01 1.3129252315543937e+01 7.7426980327654684e+00 0 0 0
466 156 3 2.6500000000000001e-01 2.4623894310790838e+01 1.3247806217477370e+01 1.2958982498185074e+01 0 0 0
390 130 2 4.3500000000000000e-01 2.4320459601736999e+01 1.3765148191778184e+01 7.9374226076467220e+00 0 0 0