LAMMPS data file via write_data, version 10 Aug 2015, timestep = 1000

648 atoms
3 atom types
432 bonds
3 bond types
216 angles
1 angle types

1.2687352616109269e+00 2.4849686283017750e+01 xlo xhi
2.0150321225776193e+00 2.5551837609312773e+01 ylo yhi
1.7338453760894077e+00 2.4240436315863125e+01 zlo zhi

Masses

1 15.999
2 1.008
3 15.035

Pair Coeffs # lj/cut

1 0.17 3.07
2 0.2 3
3 0.207 3.775

Atoms # full

1 1 3 0.0000000000000000e+00 3.071139 6.880438 3.197450 0 0 0
2 1 1 0.0000000000000000e+00 4.601139 6.880438 3.197450 0 0 0
3 1 2 0.0000000000000000e+00 5.171139 8.300438 3.197450 0 0 0
4 2 3 0.0000000000000000e+00 8.536252 3.327832 5.386349 0 0 0
5 2 1 0.0000000000000000e+00 10.066252 3.327832 5.386349 0 0 0
6 2 2 0.0000000000000000e+00 10.636252 4.747832 5.386349 0 0 0
19 7 3 0.0000000000000000e+00 4.882998 11.922294 3.271505 0 0 0
20 7 1 0.0000000000000000e+00 6.412998 11.922294 3.271505 0 0 0
21 7 2 0.0000000000000000e+00 6.982998 13.342294 3.271505 0 0 0
22 8 3 0.0000000000000000e+00 8.775998 8.577261 2.630548 0 0 0
23 8 1 0.0000000000000000e+00 10.305998 8.577261 2.630548 0 0 0
24 8 2 0.0000000000000000e+00 10.875998 9.997261 2.630548 0 0 0
109 37 3 0.0000000000000000e+00 2.106491 4.198401 9.077071 0 0 0
110 37 1 0.0000000000000000e+00 3.636491 4.198401 9.077071 0 0 0
111 37 2 0.0000000000000000e+00 4.206491 5.618401 9.077071 0 0 0
112 38 3 0.0000000000000000e+00 7.534952 4.142867 10.961530 0 0 0
113 38 1 0.0000000000000000e+00 9.064952 4.142867 10.961530 0 0 0
114 38 2 0.0000000000000000e+00 9.634952 5.562867 10.961530 0 0 0
127 43 3 0.0000000000000000e+00 1.955161 9.296209 8.118001 0 0 0
128 43 1 0.0000000000000000e+00 3.485161 9.296209 8.118001 0 0 0
129 43 2 0.0000000000000000e+00 4.055161 10.716209 8.118001 0 0 0
130 44 3 0.0000000000000000e+00 9.864755 9.341057 8.101464 0 0 0
131 44 1 0.0000000000000000e+00 11.394755 9.341057 8.101464 0 0 0
132 44 2 0.0000000000000000e+00 11.964755 10.761057 8.101464 0 0 0
7 3 3 0.0000000000000000e+00 16.283220 5.952205 3.439203 0 0 0
8 3 1 0.0000000000000000e+00 17.813220 5.952205 3.439203 0 0 0
9 3 2 0.0000000000000000e+00 18.383220 7.372205 3.439203 0 0 0
10 4 3 0.0000000000000000e+00 21.100155 3.383958 3.696960 0 0 0
11 4 1 0.0000000000000000e+00 22.630155 3.383958 3.696960 0 0 0
12 4 2 0.0000000000000000e+00 23.200155 4.803958 3.696960 0 0 0
25 9 3 0.0000000000000000e+00 16.392871 11.561700 4.065050 0 0 0
26 9 1 0.0000000000000000e+00 17.922871 11.561700 4.065050 0 0 0
27 9 2 0.0000000000000000e+00 18.492871 12.981700 4.065050 0 0 0
28 10 3 0.0000000000000000e+00 20.797891 8.910806 3.998951 0 0 0
29 10 1 0.0000000000000000e+00 22.327891 8.910806 3.998951 0 0 0
30 10 2 0.0000000000000000e+00 22.897891 10.330806 3.998951 0 0 0
115 39 3 0.0000000000000000e+00 12.456413 3.349457 10.350940 0 0 0
116 39 1 0.0000000000000000e+00 13.986413 3.349457 10.350940 0 0 0
117 39 2 0.0000000000000000e+00 14.556413 4.769457 10.350940 0 0 0
118 40 3 0.0000000000000000e+00 18.827710 3.192934 8.735430 0 0 0
119 40 1 0.0000000000000000e+00 20.357710 3.192934 8.735430 0 0 0
120 40 2 0.0000000000000000e+00 20.927710 4.612934 8.735430 0 0 0
133 45 3 0.0000000000000000e+00 14.815117 10.388307 10.518184 0 0 0
134 45 1 0.0000000000000000e+00 16.345117 10.388307 10.518184 0 0 0
135 45 2 0.0000000000000000e+00 16.915117 11.808307 10.518184 0 0 0
136 46 3 0.0000000000000000e+00 18.831341 12.871221 8.395671 0 0 0
137 46 1 0.0000000000000000e+00 20.361341 12.871221 8.395671 0 0 0
138 46 2 0.0000000000000000e+00 20.931341 14.291221 8.395671 0 0 0
13 5 3 0.0000000000000000e+00 27.040526 3.799321 3.174311 0 0 0
14 5 1 0.0000000000000000e+00 28.570526 3.799321 3.174311 0 0 0
15 5 2 0.0000000000000000e+00 29.140526 5.219321 3.174311 0 0 0
16 6 3 0.0000000000000000e+00 32.433126 3.226319 3.507794 0 0 0
17 6 1 0.0000000000000000e+00 33.963126 3.226319 3.507794 0 0 0
18 6 2 0.0000000000000000e+00 34.533126 4.646319 3.507794 0 0 0
31 11 3 0.0000000000000000e+00 26.868803 11.062443 3.072256 0 0 0
32 11 1 0.0000000000000000e+00 28.398803 11.062443 3.072256 0 0 0
33 11 2 0.0000000000000000e+00 28.968803 12.482443 3.072256 0 0 0
34 12 3 0.0000000000000000e+00 33.303299 8.679990 5.117581 0 0 0
35 12 1 0.0000000000000000e+00 34.833299 8.679990 5.117581 0 0 0
36 12 2 0.0000000000000000e+00 35.403299 10.099990 5.117581 0 0 0
121 41 3 0.0000000000000000e+00 25.781909 2.886866 9.293626 0 0 0
122 41 1 0.0000000000000000e+00 27.311909 2.886866 9.293626 0 0 0
123 41 2 0.0000000000000000e+00 27.881909 4.306866 9.293626 0 0 0
124 42 3 0.0000000000000000e+00 30.852689 3.045183 10.540687 0 0 0
125 42 1 0.0000000000000000e+00 32.382689 3.045183 10.540687 0 0 0
126 42 2 0.0000000000000000e+00 32.952689 4.465183 10.540687 0 0 0
139 47 3 0.0000000000000000e+00 22.759104 9.294908 9.089909 0 0 0
140 47 1 0.0000000000000000e+00 24.289104 9.294908 9.089909 0 0 0
141 47 2 0.0000000000000000e+00 24.859104 10.714908 9.089909 0 0 0
142 48 3 0.0000000000000000e+00 28.395657 9.096077 9.504425 0 0 0
143 48 1 0.0000000000000000e+00 29.925657 9.096077 9.504425 0 0 0
144 48 2 0.0000000000000000e+00 30.495657 10.516077 9.504425 0 0 0
37 13 3 0.0000000000000000e+00 3.563863 17.940556 3.971628 0 0 0
38 13 1 0.0000000000000000e+00 5.093863 17.940556 3.971628 0 0 0
39 13 2 0.0000000000000000e+00 5.663863 19.360556 3.971628 0 0 0
40 14 3 0.0000000000000000e+00 10.088409 13.642502 3.043168 0 0 0
41 14 1 0.0000000000000000e+00 11.618409 13.642502 3.043168 0 0 0
42 14 2 0.0000000000000000e+00 12.188409 15.062502 3.043168 0 0 0
55 19 3 0.0000000000000000e+00 4.630385 23.054857 2.459251 0 0 0
56 19 1 0.0000000000000000e+00 6.160385 23.054857 2.459251 0 0 0
57 19 2 0.0000000000000000e+00 6.730385 24.474857 2.459251 0 0 0
58 20 3 0.0000000000000000e+00 9.248336 19.500441 2.932547 0 0 0
59 20 1 0.0000000000000000e+00 10.778336 19.500441 2.932547 0 0 0
60 20 2 0.0000000000000000e+00 11.348336 20.920441 2.932547 0 0 0
145 49 3 0.0000000000000000e+00 2.085763 15.234944 9.327074 0 0 0
146 49 1 0.0000000000000000e+00 3.615763 15.234944 9.327074 0 0 0
147 49 2 0.0000000000000000e+00 4.185763 16.654944 9.327074 0 0 0
148 50 3 0.0000000000000000e+00 7.629123 15.111620 9.356559 0 0 0
149 50 1 0.0000000000000000e+00 9.159123 15.111620 9.356559 0 0 0
150 50 2 0.0000000000000000e+00 9.729123 16.531620 9.356559 0 0 0
163 55 3 0.0000000000000000e+00 1.716384 22.288872 8.724544 0 0 0
164 55 1 0.0000000000000000e+00 3.246384 22.288872 8.724544 0 0 0
165 55 2 0.0000000000000000e+00 3.816384 23.708872 8.724544 0 0 0
166 56 3 0.0000000000000000e+00 6.046160 20.336840 9.966262 0 0 0
167 56 1 0.0000000000000000e+00 7.576160 20.336840 9.966262 0 0 0
168 56 2 0.0000000000000000e+00 8.146160 21.756840 9.966262 0 0 0
43 15 3 0.0000000000000000e+00 14.473147 16.533849 2.426196 0 0 0
44 15 1 0.0000000000000000e+00 16.003147 16.533849 2.426196 0 0 0
45 15 2 0.0000000000000000e+00 16.573147 17.953849 2.426196 0 0 0
46 16 3 0.0000000000000000e+00 22.399849 15.268613 3.517058 0 0 0
47 16 1 0.0000000000000000e+00 23.929849 15.268613 3.517058 0 0 0
48 16 2 0.0000000000000000e+00 24.499849 16.688613 3.517058 0 0 0
61 21 3 0.0000000000000000e+00 14.421127 21.630490 4.267167 0 0 0
62 21 1 0.0000000000000000e+00 15.951127 21.630490 4.267167 0 0 0
63 21 2 0.0000000000000000e+00 16.521127 23.050490 4.267167 0 0 0
64 22 3 0.0000000000000000e+00 19.337509 20.232400 3.010499 0 0 0
65 22 1 0.0000000000000000e+00 20.867509 20.232400 3.010499 0 0 0
66 22 2 0.0000000000000000e+00 21.437509 21.652400 3.010499 0 0 0
151 51 3 0.0000000000000000e+00 13.563102 14.788513 8.467146 0 0 0
152 51 1 0.0000000000000000e+00 15.093102 14.788513 8.467146 0 0 0
153 51 2 0.0000000000000000e+00 15.663102 16.208513 8.467146 0 0 0
154 52 3 0.0000000000000000e+00 17.488240 17.952890 8.966530 0 0 0
155 52 1 0.0000000000000000e+00 19.018240 17.952890 8.966530 0 0 0
156 52 2 0.0000000000000000e+00 19.588240 19.372890 8.966530 0 0 0
169 57 3 0.0000000000000000e+00 12.188033 21.313495 9.157581 0 0 0
170 57 1 0.0000000000000000e+00 13.718033 21.313495 9.157581 0 0 0
171 57 2 0.0000000000000000e+00 14.288033 22.733495 9.157581 0 0 0
172 58 3 0.0000000000000000e+00 19.306364 22.943397 8.383811 0 0 0
173 58 1 0.0000000000000000e+00 20.836364 22.943397 8.383811 0 0 0
174 58 2 0.0000000000000000e+00 21.406364 24.363397 8.383811 0 0 0
49 17 3 0.0000000000000000e+00 28.230732 16.873321 3.791289 0 0 0
50 17 1 0.0000000000000000e+00 29.760732 16.873321 3.791289 0 0 0
51 17 2 0.0000000000000000e+00 30.330732 18.293321 3.791289 0 0 0
52 18 3 0.0000000000000000e+00 32.450986 14.260399 4.811983 0 0 0
53 18 1 0.0000000000000000e+00 33.980986 14.260399 4.811983 0 0 0
54 18 2 0.0000000000000000e+00 34.550986 15.680399 4.811983 0 0 0
67 23 3 0.0000000000000000e+00 23.989384 21.227516 4.383440 0 0 0
68 23 1 0.0000000000000000e+00 25.519384 21.227516 4.383440 0 0 0
69 23 2 0.0000000000000000e+00 26.089384 22.647516 4.383440 0 0 0
70 24 3 0.0000000000000000e+00 32.096709 20.717682 2.469464 0 0 0
71 24 1 0.0000000000000000e+00 33.626709 20.717682 2.469464 0 0 0
72 24 2 0.0000000000000000e+00 34.196709 22.137682 2.469464 0 0 0
157 53 3 0.0000000000000000e+00 22.443524 17.708258 9.112263 0 0 0
158 53 1 0.0000000000000000e+00 23.973524 17.708258 9.112263 0 0 0
159 53 2 0.0000000000000000e+00 24.543524 19.128258 9.112263 0 0 0
160 54 3 0.0000000000000000e+00 27.667124 14.189584 10.385290 0 0 0
161 54 1 0.0000000000000000e+00 29.197124 14.189584 10.385290 0 0 0
162 54 2 0.0000000000000000e+00 29.767124 15.609584 10.385290 0 0 0
175 59 3 0.0000000000000000e+00 26.796461 24.196915 11.060527 0 0 0
176 59 1 0.0000000000000000e+00 28.326461 24.196915 11.060527 0 0 0
177 59 2 0.0000000000000000e+00 28.896461 25.616915 11.060527 0 0 0
178 60 3 0.0000000000000000e+00 32.283191 19.370662 7.622523 0 0 0
179 60 1 0.0000000000000000e+00 33.813191 19.370662 7.622523 0 0 0
180 60 2 0.0000000000000000e+00 34.383191 20.790662 7.622523 0 0 0
73 25 3 0.0000000000000000e+00 3.912413 27.619257 5.587133 0 0 0
74 25 1 0.0000000000000000e+00 5.442413 27.619257 5.587133 0 0 0
75 25 2 0.0000000000000000e+00 6.012413 29.039257 5.587133 0 0 0
76 26 3 0.0000000000000000e+00 9.524777 26.747147 2.344282 0 0 0
77 26 1 0.0000000000000000e+00 11.054777 26.747147 2.344282 0 0 0
78 26 2 0.0000000000000000e+00 11.624777 28.167147 2.344282 0 0 0
91 31 3 0.0000000000000000e+00 3.704268 33.193495 2.487578 0 0 0
92 31 1 0.0000000000000000e+00 5.234268 33.193495 2.487578 0 0 0
93 31 2 0.0000000000000000e+00 5.804268 34.613495 2.487578 0 0 0
94 32 3 0.0000000000000000e+00 9.408934 30.418538 6.251415 0 0 0
95 32 1 0.0000000000000000e+00 10.938934 30.418538 6.251415 0 0 0
96 32 2 0.0000000000000000e+00 11.508934 31.838538 6.251415 0 0 0
181 61 3 0.0000000000000000e+00 1.730369 28.074500 11.562587 0 0 0
182 61 1 0.0000000000000000e+00 3.260369 28.074500 11.562587 0 0 0
183 61 2 0.0000000000000000e+00 3.830369 29.494500 11.562587 0 0 0
184 62 3 0.0000000000000000e+00 7.824771 25.117347 10.319638 0 0 0
185 62 1 0.0000000000000000e+00 9.354771 25.117347 10.319638 0 0 0
186 62 2 0.0000000000000000e+00 9.924771 26.537347 10.319638 0 0 0
199 67 3 0.0000000000000000e+00 1.956762 32.517602 8.461091 0 0 0
200 67 1 0.0000000000000000e+00 3.486762 32.517602 8.461091 0 0 0
201 67 2 0.0000000000000000e+00 4.056762 33.937602 8.461091 0 0 0
202 68 3 0.0000000000000000e+00 7.799221 29.873869 12.286477 0 0 0
203 68 1 0.0000000000000000e+00 9.329221 29.873869 12.286477 0 0 0
204 68 2 0.0000000000000000e+00 9.899221 31.293869 12.286477 0 0 0
79 27 3 0.0000000000000000e+00 16.576771 27.361120 2.479557 0 0 0
80 27 1 0.0000000000000000e+00 18.106771 27.361120 2.479557 0 0 0
81 27 2 0.0000000000000000e+00 18.676771 28.781120 2.479557 0 0 0
82 28 3 0.0000000000000000e+00 21.999695 25.870987 3.132914 0 0 0
83 28 1 0.0000000000000000e+00 23.529695 25.870987 3.132914 0 0 0
84 28 2 0.0000000000000000e+00 24.099695 27.290987 3.132914 0 0 0
97 33 3 0.0000000000000000e+00 13.691327 31.557042 3.746555 0 0 0
98 33 1 0.0000000000000000e+00 15.221327 31.557042 3.746555 0 0 0
99 33 2 0.0000000000000000e+00 15.791327 32.977042 3.746555 0 0 0
100 34 3 0.0000000000000000e+00 20.340063 33.490120 4.127514 0 0 0
101 34 1 0.0000000000000000e+00 21.870063 33.490120 4.127514 0 0 0
102 34 2 0.0000000000000000e+00 22.440063 34.910120 4.127514 0 0 0
187 63 3 0.0000000000000000e+00 13.438239 26.011823 6.711358 0 0 0
188 63 1 0.0000000000000000e+00 14.968239 26.011823 6.711358 0 0 0
189 63 2 0.0000000000000000e+00 15.538239 27.431823 6.711358 0 0 0
190 64 3 0.0000000000000000e+00 18.969796 27.162183 11.172602 0 0 0
191 64 1 0.0000000000000000e+00 20.499796 27.162183 11.172602 0 0 0
192 64 2 0.0000000000000000e+00 21.069796 28.582183 11.172602 0 0 0
205 69 3 0.0000000000000000e+00 13.114637 30.992014 10.639533 0 0 0
206 69 1 0.0000000000000000e+00 14.644637 30.992014 10.639533 0 0 0
207 69 2 0.0000000000000000e+00 15.214637 32.412014 10.639533 0 0 0
208 70 3 0.0000000000000000e+00 18.100209 32.473685 9.836487 0 0 0
209 70 1 0.0000000000000000e+00 19.630209 32.473685 9.836487 0 0 0
210 70 2 0.0000000000000000e+00 20.200209 33.893685 9.836487 0 0 0
85 29 3 0.0000000000000000e+00 27.673369 25.619665 4.393710 0 0 0
86 29 1 0.0000000000000000e+00 29.203369 25.619665 4.393710 0 0 0
87 29 2 0.0000000000000000e+00 29.773369 27.039665 4.393710 0 0 0
88 30 3 0.0000000000000000e+00 33.269867 27.450107 3.360468 0 0 0
89 30 1 0.0000000000000000e+00 34.799867 27.450107 3.360468 0 0 0
90 30 2 0.0000000000000000e+00 35.369867 28.870107 3.360468 0 0 0
103 35 3 0.0000000000000000e+00 26.363053 30.276947 2.386254 0 0 0
104 35 1 0.0000000000000000e+00 27.893053 30.276947 2.386254 0 0 0
105 35 2 0.0000000000000000e+00 28.463053 31.696947 2.386254 0 0 0
106 36 3 0.0000000000000000e+00 32.913270 33.221559 6.340578 0 0 0
107 36 1 0.0000000000000000e+00 34.443270 33.221559 6.340578 0 0 0
108 36 2 0.0000000000000000e+00 35.013270 34.641559 6.340578 0 0 0
193 65 3 0.0000000000000000e+00 23.921548 28.608185 9.726174 0 0 0
194 65 1 0.0000000000000000e+00 25.451548 28.608185 9.726174 0 0 0
195 65 2 0.0000000000000000e+00 26.021548 30.028185 9.726174 0 0 0
196 66 3 0.0000000000000000e+00 33.349231 24.907998 8.983460 0 0 0
197 66 1 0.0000000000000000e+00 34.879231 24.907998 8.983460 0 0 0
198 66 2 0.0000000000000000e+00 35.449231 26.327998 8.983460 0 0 0
211 71 3 0.0000000000000000e+00 24.760147 34.458479 8.192132 0 0 0
212 71 1 0.0000000000000000e+00 26.290147 34.458479 8.192132 0 0 0
213 71 2 0.0000000000000000e+00 26.860147 35.878479 8.192132 0 0 0
214 72 3 0.0000000000000000e+00 29.155261 28.951271 8.722865 0 0 0
215 72 1 0.0000000000000000e+00 30.685261 28.951271 8.722865 0 0 0
216 72 2 0.0000000000000000e+00 31.255261 30.371271 8.722865 0 0 0
217 73 3 0.0000000000000000e+00 4.232618 2.723884 15.080021 0 0 0
218 73 1 0.0000000000000000e+00 5.762618 2.723884 15.080021 0 0 0
219 73 2 0.0000000000000000e+00 6.332618 4.143884 15.080021 0 0 0
220 74 3 0.0000000000000000e+00 10.443488 2.797948 15.516204 0 0 0
221 74 1 0.0000000000000000e+00 11.973488 2.797948 15.516204 0 0 0
222 74 2 0.0000000000000000e+00 12.543488 4.217948 15.516204 0 0 0
235 79 3 0.0000000000000000e+00 2.261444 9.900773 13.482327 0 0 0
236 79 1 0.0000000000000000e+00 3.791444 9.900773 13.482327 0 0 0
237 79 2 0.0000000000000000e+00 4.361444 11.320773 13.482327 0 0 0
238 80 3 0.0000000000000000e+00 10.609486 7.704777 12.846988 0 0 0
239 80 1 0.0000000000000000e+00 12.139486 7.704777 12.846988 0 0 0
240 80 2 0.0000000000000000e+00 12.709486 9.124777 12.846988 0 0 0
325 109 3 0.0000000000000000e+00 2.150746 4.880641 19.718421 0 0 0
326 109 1 0.0000000000000000e+00 3.680746 4.880641 19.718421 0 0 0
327 109 2 0.0000000000000000e+00 4.250746 6.300641 19.718421 0 0 0
328 110 3 0.0000000000000000e+00 7.327514 3.240804 19.636202 0 0 0
329 110 1 0.0000000000000000e+00 8.857514 3.240804 19.636202 0 0 0
330 110 2 0.0000000000000000e+00 9.427514 4.660804 19.636202 0 0 0
343 115 3 0.0000000000000000e+00 3.746479 11.400503 18.510413 0 0 0
344 115 1 0.0000000000000000e+00 5.276479 11.400503 18.510413 0 0 0
345 115 2 0.0000000000000000e+00 5.846479 12.820503 18.510413 0 0 0
346 116 3 0.0000000000000000e+00 9.949057 8.868901 18.880919 0 0 0
347 116 1 0.0000000000000000e+00 11.479057 8.868901 18.880919 0 0 0
348 116 2 0.0000000000000000e+00 12.049057 10.288901 18.880919 0 0 0
223 75 3 0.0000000000000000e+00 16.674201 5.095350 13.505968 0 0 0
224 75 1 0.0000000000000000e+00 18.204201 5.095350 13.505968 0 0 0
225 75 2 0.0000000000000000e+00 18.774201 6.515350 13.505968 0 0 0
226 76 3 0.0000000000000000e+00 21.821115 3.498548 13.643362 0 0 0
227 76 1 0.0000000000000000e+00 23.351115 3.498548 13.643362 0 0 0
228 76 2 0.0000000000000000e+00 23.921115 4.918548 13.643362 0 0 0
241 81 3 0.0000000000000000e+00 15.075325 11.888235 16.106200 0 0 0
242 81 1 0.0000000000000000e+00 16.605325 11.888235 16.106200 0 0 0
243 81 2 0.0000000000000000e+00 17.175325 13.308235 16.106200 0 0 0
244 82 3 0.0000000000000000e+00 20.137231 9.742049 13.253926 0 0 0
245 82 1 0.0000000000000000e+00 21.667231 9.742049 13.253926 0 0 0
246 82 2 0.0000000000000000e+00 22.237231 11.162049 13.253926 0 0 0
331 111 3 0.0000000000000000e+00 13.274556 5.167510 20.856467 0 0 0
332 111 1 0.0000000000000000e+00 14.804556 5.167510 20.856467 0 0 0
333 111 2 0.0000000000000000e+00 15.374556 6.587510 20.856467 0 0 0
334 112 3 0.0000000000000000e+00 18.473844 4.079619 18.309319 0 0 0
335 112 1 0.0000000000000000e+00 20.003844 4.079619 18.309319 0 0 0
336 112 2 0.0000000000000000e+00 20.573844 5.499619 18.309319 0 0 0
349 117 3 0.0000000000000000e+00 14.434255 10.810931 21.212226 0 0 0
350 117 1 0.0000000000000000e+00 15.964255 10.810931 21.212226 0 0 0
351 117 2 0.0000000000000000e+00 16.534255 12.230931 21.212226 0 0 0
352 118 3 0.0000000000000000e+00 21.621674 10.084175 20.821424 0 0 0
353 118 1 0.0000000000000000e+00 23.151674 10.084175 20.821424 0 0 0
354 118 2 0.0000000000000000e+00 23.721674 11.504175 20.821424 0 0 0
229 77 3 0.0000000000000000e+00 27.325396 3.691723 15.701247 0 0 0
230 77 1 0.0000000000000000e+00 28.855396 3.691723 15.701247 0 0 0
231 77 2 0.0000000000000000e+00 29.425396 5.111723 15.701247 0 0 0
232 78 3 0.0000000000000000e+00 32.528558 3.533591 16.896080 0 0 0
233 78 1 0.0000000000000000e+00 34.058558 3.533591 16.896080 0 0 0
234 78 2 0.0000000000000000e+00 34.628558 4.953591 16.896080 0 0 0
247 83 3 0.0000000000000000e+00 24.238647 8.088314 16.119760 0 0 0
248 83 1 0.0000000000000000e+00 25.768647 8.088314 16.119760 0 0 0
249 83 2 0.0000000000000000e+00 26.338647 9.508314 16.119760 0 0 0
250 84 3 0.0000000000000000e+00 31.600618 10.374845 15.368941 0 0 0
251 84 1 0.0000000000000000e+00 33.130618 10.374845 15.368941 0 0 0
252 84 2 0.0000000000000000e+00 33.700618 11.794845 15.368941 0 0 0
337 113 3 0.0000000000000000e+00 23.592518 3.141578 19.474116 0 0 0
338 113 1 0.0000000000000000e+00 25.122518 3.141578 19.474116 0 0 0
339 113 2 0.0000000000000000e+00 25.692518 4.561578 19.474116 0 0 0
340 114 3 0.0000000000000000e+00 28.848232 3.057173 21.825007 0 0 0
341 114 1 0.0000000000000000e+00 30.378232 3.057173 21.825007 0 0 0
342 114 2 0.0000000000000000e+00 30.948232 4.477173 21.825007 0 0 0
355 119 3 0.0000000000000000e+00 28.179776 8.469204 19.297491 0 0 0
356 119 1 0.0000000000000000e+00 29.709776 8.469204 19.297491 0 0 0
357 119 2 0.0000000000000000e+00 30.279776 9.889204 19.297491 0 0 0
358 120 3 0.0000000000000000e+00 33.543485 8.604070 21.974790 0 0 0
359 120 1 0.0000000000000000e+00 35.073485 8.604070 21.974790 0 0 0
360 120 2 0.0000000000000000e+00 35.643485 10.024070 21.974790 0 0 0
253 85 3 0.0000000000000000e+00 4.246812 16.795851 15.331730 0 0 0
254 85 1 0.0000000000000000e+00 5.776812 16.795851 15.331730 0 0 0
255 85 2 0.0000000000000000e+00 6.346812 18.215851 15.331730 0 0 0
256 86 3 0.0000000000000000e+00 7.271637 12.449912 14.800434 0 0 0
257 86 1 0.0000000000000000e+00 8.801637 12.449912 14.800434 0 0 0
258 86 2 0.0000000000000000e+00 9.371637 13.869912 14.800434 0 0 0
271 91 3 0.0000000000000000e+00 2.753420 21.823225 13.799620 0 0 0
272 91 1 0.0000000000000000e+00 4.283420 21.823225 13.799620 0 0 0
273 91 2 0.0000000000000000e+00 4.853420 23.243225 13.799620 0 0 0
274 92 3 0.0000000000000000e+00 10.794182 20.346550 14.530879 0 0 0
275 92 1 0.0000000000000000e+00 12.324182 20.346550 14.530879 0 0 0
276 92 2 0.0000000000000000e+00 12.894182 21.766550 14.530879 0 0 0
361 121 3 0.0000000000000000e+00 4.499284 15.810053 20.820690 0 0 0
362 121 1 0.0000000000000000e+00 6.029284 15.810053 20.820690 0 0 0
363 121 2 0.0000000000000000e+00 6.599284 17.230053 20.820690 0 0 0
364 122 3 0.0000000000000000e+00 10.846147 13.897317 18.327760 0 0 0
365 122 1 0.0000000000000000e+00 12.376147 13.897317 18.327760 0 0 0
366 122 2 0.0000000000000000e+00 12.946147 15.317317 18.327760 0 0 0
379 127 3 0.0000000000000000e+00 2.346220 21.023370 19.158911 0 0 0
380 127 1 0.0000000000000000e+00 3.876220 21.023370 19.158911 0 0 0
381 127 2 0.0000000000000000e+00 4.446220 22.443370 19.158911 0 0 0
382 128 3 0.0000000000000000e+00 7.244165 19.821380 18.264415 0 0 0
383 128 1 0.0000000000000000e+00 8.774165 19.821380 18.264415 0 0 0
384 128 2 0.0000000000000000e+00 9.344165 21.241380 18.264415 0 0 0
259 87 3 0.0000000000000000e+00 12.651666 15.897249 13.294134 0 0 0
260 87 1 0.0000000000000000e+00 14.181666 15.897249 13.294134 0 0 0
261 87 2 0.0000000000000000e+00 14.751666 17.317249 13.294134 0 0 0
262 88 3 0.0000000000000000e+00 19.296679 14.140150 15.684653 0 0 0
263 88 1 0.0000000000000000e+00 20.826679 14.140150 15.684653 0 0 0
264 88 2 0.0000000000000000e+00 21.396679 15.560150 15.684653 0 0 0
277 93 3 0.0000000000000000e+00 15.913340 20.470862 14.422929 0 0 0
278 93 1 0.0000000000000000e+00 17.443340 20.470862 14.422929 0 0 0
279 93 2 0.0000000000000000e+00 18.013340 21.890862 14.422929 0 0 0
280 94 3 0.0000000000000000e+00 22.218120 20.107364 13.693933 0 0 0
281 94 1 0.0000000000000000e+00 23.748120 20.107364 13.693933 0 0 0
282 94 2 0.0000000000000000e+00 24.318120 21.527364 13.693933 0 0 0
367 123 3 0.0000000000000000e+00 15.305025 16.064132 21.535372 0 0 0
368 123 1 0.0000000000000000e+00 16.835025 16.064132 21.535372 0 0 0
369 123 2 0.0000000000000000e+00 17.405025 17.484132 21.535372 0 0 0
370 124 3 0.0000000000000000e+00 20.115064 16.916590 20.192848 0 0 0
371 124 1 0.0000000000000000e+00 21.645064 16.916590 20.192848 0 0 0
372 124 2 0.0000000000000000e+00 22.215064 18.336590 20.192848 0 0 0
385 129 3 0.0000000000000000e+00 13.702801 20.270911 19.422044 0 0 0
386 129 1 0.0000000000000000e+00 15.232801 20.270911 19.422044 0 0 0
387 129 2 0.0000000000000000e+00 15.802801 21.690911 19.422044 0 0 0
388 130 3 0.0000000000000000e+00 22.497702 21.558660 19.473611 0 0 0
389 130 1 0.0000000000000000e+00 24.027702 21.558660 19.473611 0 0 0
390 130 2 0.0000000000000000e+00 24.597702 22.978660 19.473611 0 0 0
265 89 3 0.0000000000000000e+00 24.228966 12.859357 13.747073 0 0 0
266 89 1 0.0000000000000000e+00 25.758966 12.859357 13.747073 0 0 0
267 89 2 0.0000000000000000e+00 26.328966 14.279357 13.747073 0 0 0
268 90 3 0.0000000000000000e+00 29.233394 15.018375 15.494050 0 0 0
269 90 1 0.0000000000000000e+00 30.763394 15.018375 15.494050 0 0 0
270 90 2 0.0000000000000000e+00 31.333394 16.438375 15.494050 0 0 0
283 95 3 0.0000000000000000e+00 27.389281 20.441100 15.639573 0 0 0
284 95 1 0.0000000000000000e+00 28.919281 20.441100 15.639573 0 0 0
285 95 2 0.0000000000000000e+00 29.489281 21.861100 15.639573 0 0 0
286 96 3 0.0000000000000000e+00 31.716739 20.133358 12.955591 0 0 0
287 96 1 0.0000000000000000e+00 33.246739 20.133358 12.955591 0 0 0
288 96 2 0.0000000000000000e+00 33.816739 21.553358 12.955591 0 0 0
373 125 3 0.0000000000000000e+00 25.922150 14.170068 20.001304 0 0 0
374 125 1 0.0000000000000000e+00 27.452150 14.170068 20.001304 0 0 0
375 125 2 0.0000000000000000e+00 28.022150 15.590068 20.001304 0 0 0
376 126 3 0.0000000000000000e+00 32.387668 13.857154 20.091804 0 0 0
377 126 1 0.0000000000000000e+00 33.917668 13.857154 20.091804 0 0 0
378 126 2 0.0000000000000000e+00 34.487668 15.277154 20.091804 0 0 0
391 131 3 0.0000000000000000e+00 27.068001 19.408612 20.886283 0 0 0
392 131 1 0.0000000000000000e+00 28.598001 19.408612 20.886283 0 0 0
393 131 2 0.0000000000000000e+00 29.168001 20.828612 20.886283 0 0 0
394 132 3 0.0000000000000000e+00 32.945529 19.005580 18.078318 0 0 0
395 132 1 0.0000000000000000e+00 34.475529 19.005580 18.078318 0 0 0
396 132 2 0.0000000000000000e+00 35.045529 20.425580 18.078318 0 0 0
289 97 3 0.0000000000000000e+00 1.816715 26.189890 17.343056 0 0 0
290 97 1 0.0000000000000000e+00 3.346715 26.189890 17.343056 0 0 0
291 97 2 0.0000000000000000e+00 3.916715 27.609890 17.343056 0 0 0
292 98 3 0.0000000000000000e+00 8.351000 26.340248 15.438249 0 0 0
293 98 1 0.0000000000000000e+00 9.881000 26.340248 15.438249 0 0 0
294 98 2 0.0000000000000000e+00 10.451000 27.760248 15.438249 0 0 0
307 103 3 0.0000000000000000e+00 3.043854 34.491390 13.879216 0 0 0
308 103 1 0.0000000000000000e+00 4.573854 34.491390 13.879216 0 0 0
309 103 2 0.0000000000000000e+00 5.143854 35.911390 13.879216 0 0 0
310 104 3 0.0000000000000000e+00 7.946858 34.158563 16.634823 0 0 0
311 104 1 0.0000000000000000e+00 9.476858 34.158563 16.634823 0 0 0
312 104 2 0.0000000000000000e+00 10.046858 35.578563 16.634823 0 0 0
397 133 3 0.0000000000000000e+00 3.535431 27.557281 21.950062 0 0 0
398 133 1 0.0000000000000000e+00 5.065431 27.557281 21.950062 0 0 0
399 133 2 0.0000000000000000e+00 5.635431 28.977281 21.950062 0 0 0
400 134 3 0.0000000000000000e+00 9.762508 23.626351 20.682647 0 0 0
401 134 1 0.0000000000000000e+00 11.292508 23.626351 20.682647 0 0 0
402 134 2 0.0000000000000000e+00 11.862508 25.046351 20.682647 0 0 0
415 139 3 0.0000000000000000e+00 3.339090 31.409593 18.247693 0 0 0
416 139 1 0.0000000000000000e+00 4.869090 31.409593 18.247693 0 0 0
417 139 2 0.0000000000000000e+00 5.439090 32.829593 18.247693 0 0 0
418 140 3 0.0000000000000000e+00 9.526287 30.737571 21.300463 0 0 0
419 140 1 0.0000000000000000e+00 11.056287 30.737571 21.300463 0 0 0
420 140 2 0.0000000000000000e+00 11.626287 32.157571 21.300463 0 0 0
295 99 3 0.0000000000000000e+00 14.232963 25.698249 11.892904 0 0 0
296 99 1 0.0000000000000000e+00 15.762963 25.698249 11.892904 0 0 0
297 99 2 0.0000000000000000e+00 16.332963 27.118249 11.892904 0 0 0
298 100 3 0.0000000000000000e+00 18.185617 24.740014 15.978842 0 0 0
299 100 1 0.0000000000000000e+00 19.715617 24.740014 15.978842 0 0 0
300 100 2 0.0000000000000000e+00 20.285617 26.160014 15.978842 0 0 0
313 105 3 0.0000000000000000e+00 14.323798 31.232687 16.143010 0 0 0
314 105 1 0.0000000000000000e+00 15.853798 31.232687 16.143010 0 0 0
315 105 2 0.0000000000000000e+00 16.423798 32.652687 16.143010 0 0 0
316 106 3 0.0000000000000000e+00 21.282804 31.323926 13.633404 0 0 0
317 106 1 0.0000000000000000e+00 22.812804 31.323926 13.633404 0 0 0
318 106 2 0.0000000000000000e+00 23.382804 32.743926 13.633404 0 0 0
403 135 3 0.0000000000000000e+00 13.919104 26.561845 18.503617 0 0 0
404 135 1 0.0000000000000000e+00 15.449104 26.561845 18.503617 0 0 0
405 135 2 0.0000000000000000e+00 16.019104 27.981845 18.503617 0 0 0
406 136 3 0.0000000000000000e+00 20.489208 28.803828 19.465062 0 0 0
407 136 1 0.0000000000000000e+00 22.019208 28.803828 19.465062 0 0 0
408 136 2 0.0000000000000000e+00 22.589208 30.223828 19.465062 0 0 0
421 141 3 0.0000000000000000e+00 15.756655 29.834611 22.301457 0 0 0
422 141 1 0.0000000000000000e+00 17.286655 29.834611 22.301457 0 0 0
423 141 2 0.0000000000000000e+00 17.856655 31.254611 22.301457 0 0 0
424 142 3 0.0000000000000000e+00 17.930866 34.101060 19.064342 0 0 0
425 142 1 0.0000000000000000e+00 19.460866 34.101060 19.064342 0 0 0
426 142 2 0.0000000000000000e+00 20.030866 35.521060 19.064342 0 0 0
301 101 3 0.0000000000000000e+00 24.691907 26.692564 14.878998 0 0 0
302 101 1 0.0000000000000000e+00 26.221907 26.692564 14.878998 0 0 0
303 101 2 0.0000000000000000e+00 26.791907 28.112564 14.878998 0 0 0
304 102 3 0.0000000000000000e+00 29.660909 25.902814 16.786371 0 0 0
305 102 1 0.0000000000000000e+00 31.190909 25.902814 16.786371 0 0 0
306 102 2 0.0000000000000000e+00 31.760909 27.322814 16.786371 0 0 0
319 107 3 0.0000000000000000e+00 27.565154 30.889443 13.107794 0 0 0
320 107 1 0.0000000000000000e+00 29.095154 30.889443 13.107794 0 0 0
321 107 2 0.0000000000000000e+00 29.665154 32.309443 13.107794 0 0 0
322 108 3 0.0000000000000000e+00 32.832575 31.983793 11.378920 0 0 0
323 108 1 0.0000000000000000e+00 34.362575 31.983793 11.378920 0 0 0
324 108 2 0.0000000000000000e+00 34.932575 33.403793 11.378920 0 0 0
409 137 3 0.0000000000000000e+00 24.712883 26.025761 20.648656 0 0 0
410 137 1 0.0000000000000000e+00 26.242883 26.025761 20.648656 0 0 0
411 137 2 0.0000000000000000e+00 26.812883 27.445761 20.648656 0 0 0
412 138 3 0.0000000000000000e+00 32.298785 24.191070 21.725842 0 0 0
413 138 1 0.0000000000000000e+00 33.828785 24.191070 21.725842 0 0 0
414 138 2 0.0000000000000000e+00 34.398785 25.611070 21.725842 0 0 0
427 143 3 0.0000000000000000e+00 25.293852 33.221468 19.133500 0 0 0
428 143 1 0.0000000000000000e+00 26.823852 33.221468 19.133500 0 0 0
429 143 2 0.0000000000000000e+00 27.393852 34.641468 19.133500 0 0 0
430 144 3 0.0000000000000000e+00 32.750149 30.452385 17.870208 0 0 0
431 144 1 0.0000000000000000e+00 34.280149 30.452385 17.870208 0 0 0
432 144 2 0.0000000000000000e+00 34.850149 31.872385 17.870208 0 0 0
433 145 3 0.0000000000000000e+00 4.208028 3.492552 24.365760 0 0 0
434 145 1 0.0000000000000000e+00 5.738028 3.492552 24.365760 0 0 0
435 145 2 0.0000000000000000e+00 6.308028 4.912552 24.365760 0 0 0
436 146 3 0.0000000000000000e+00 9.475687 3.354240 24.713581 0 0 0
437 146 1 0.0000000000000000e+00 11.005687 3.354240 24.713581 0 0 0
438 146 2 0.0000000000000000e+00 11.575687 4.774240 24.713581 0 0 0
451 151 3 0.0000000000000000e+00 1.802714 9.418571 23.322574 0 0 0
452 151 1 0.0000000000000000e+00 3.332714 9.418571 23.322574 0 0 0
453 151 2 0.0000000000000000e+00 3.902714 10.838571 23.322574 0 0 0