LAMMPS Description

     648  atoms
     432  bonds
     216  angles
     0  dihedrals
     0  impropers

     3  atom types
     3  bond types
     1  angle types

  0.0 26.6 xlo xhi
  0.0 26.6 ylo yhi
  0.0 26.6 zlo zhi

Masses

    1 15.999 #OH "Alcohol OH (UA)" 8 partial charge=-0.7
    2 1.008 #HO "Alcohol OH (UA)" 1 partial charge=0.435
    3 15.035 #C3 "Methanol CH3- (UA)" 6 partial charge=0.265

Atoms # full

1 1 3 0.0 1.252 1.985 2.024
2 1 1 0.0 2.558 2.42 1.722
3 1 2 0.0 2.716 3.404 2.137
4 2 3 0.0 5.6819999999999995 1.985 2.024
5 2 1 0.0 6.9879999999999995 2.42 1.722
6 2 2 0.0 7.146 3.404 2.137
7 3 3 0.0 10.112 1.985 2.024
8 3 1 0.0 11.418 2.42 1.722
9 3 2 0.0 11.575999999999999 3.404 2.137
10 4 3 0.0 14.542 1.985 2.024
11 4 1 0.0 15.847999999999999 2.42 1.722
12 4 2 0.0 16.006 3.404 2.137
13 5 3 0.0 18.971999999999998 1.985 2.024
14 5 1 0.0 20.278 2.42 1.722
15 5 2 0.0 20.436 3.404 2.137
16 6 3 0.0 23.401999999999997 1.985 2.024
17 6 1 0.0 24.708 2.42 1.722
18 6 2 0.0 24.866 3.404 2.137
19 7 3 0.0 1.252 6.415 2.024
20 7 1 0.0 2.558 6.85 1.722
21 7 2 0.0 2.716 7.834 2.137
22 8 3 0.0 5.6819999999999995 6.415 2.024
23 8 1 0.0 6.9879999999999995 6.85 1.722
24 8 2 0.0 7.146 7.834 2.137
25 9 3 0.0 10.112 6.415 2.024
26 9 1 0.0 11.418 6.85 1.722
27 9 2 0.0 11.575999999999999 7.834 2.137
28 10 3 0.0 14.542 6.415 2.024
29 10 1 0.0 15.847999999999999 6.85 1.722
30 10 2 0.0 16.006 7.834 2.137
31 11 3 0.0 18.971999999999998 6.415 2.024
32 11 1 0.0 20.278 6.85 1.722
33 11 2 0.0 20.436 7.834 2.137
34 12 3 0.0 23.401999999999997 6.415 2.024
35 12 1 0.0 24.708 6.85 1.722
36 12 2 0.0 24.866 7.834 2.137
37 13 3 0.0 1.252 10.844999999999999 2.024
38 13 1 0.0 2.558 11.28 1.722
39 13 2 0.0 2.716 12.264 2.137
40 14 3 0.0 5.6819999999999995 10.844999999999999 2.024
41 14 1 0.0 6.9879999999999995 11.28 1.722
42 14 2 0.0 7.146 12.264 2.137
43 15 3 0.0 10.112 10.844999999999999 2.024
44 15 1 0.0 11.418 11.28 1.722
45 15 2 0.0 11.575999999999999 12.264 2.137
46 16 3 0.0 14.542 10.844999999999999 2.024
47 16 1 0.0 15.847999999999999 11.28 1.722
48 16 2 0.0 16.006 12.264 2.137
49 17 3 0.0 18.971999999999998 10.844999999999999 2.024
50 17 1 0.0 20.278 11.28 1.722
51 17 2 0.0 20.436 12.264 2.137
52 18 3 0.0 23.401999999999997 10.844999999999999 2.024
53 18 1 0.0 24.708 11.28 1.722
54 18 2 0.0 24.866 12.264 2.137
55 19 3 0.0 1.252 15.274999999999999 2.024
56 19 1 0.0 2.558 15.709999999999999 1.722
57 19 2 0.0 2.716 16.694 2.137
58 20 3 0.0 5.6819999999999995 15.274999999999999 2.024
59 20 1 0.0 6.9879999999999995 15.709999999999999 1.722
60 20 2 0.0 7.146 16.694 2.137
61 21 3 0.0 10.112 15.274999999999999 2.024
62 21 1 0.0 11.418 15.709999999999999 1.722
63 21 2 0.0 11.575999999999999 16.694 2.137
64 22 3 0.0 14.542 15.274999999999999 2.024
65 22 1 0.0 15.847999999999999 15.709999999999999 1.722
66 22 2 0.0 16.006 16.694 2.137
67 23 3 0.0 18.971999999999998 15.274999999999999 2.024
68 23 1 0.0 20.278 15.709999999999999 1.722
69 23 2 0.0 20.436 16.694 2.137
70 24 3 0.0 23.401999999999997 15.274999999999999 2.024
71 24 1 0.0 24.708 15.709999999999999 1.722
72 24 2 0.0 24.866 16.694 2.137
73 25 3 0.0 1.252 19.705 2.024
74 25 1 0.0 2.558 20.14 1.722
75 25 2 0.0 2.716 21.124 2.137
76 26 3 0.0 5.6819999999999995 19.705 2.024
77 26 1 0.0 6.9879999999999995 20.14 1.722
78 26 2 0.0 7.146 21.124 2.137
79 27 3 0.0 10.112 19.705 2.024
80 27 1 0.0 11.418 20.14 1.722
81 27 2 0.0 11.575999999999999 21.124 2.137
82 28 3 0.0 14.542 19.705 2.024
83 28 1 0.0 15.847999999999999 20.14 1.722
84 28 2 0.0 16.006 21.124 2.137
85 29 3 0.0 18.971999999999998 19.705 2.024
86 29 1 0.0 20.278 20.14 1.722
87 29 2 0.0 20.436 21.124 2.137
88 30 3 0.0 23.401999999999997 19.705 2.024
89 30 1 0.0 24.708 20.14 1.722
90 30 2 0.0 24.866 21.124 2.137
91 31 3 0.0 1.252 24.134999999999998 2.024
92 31 1 0.0 2.558 24.57 1.722
93 31 2 0.0 2.716 25.554 2.137
94 32 3 0.0 5.6819999999999995 24.134999999999998 2.024
95 32 1 0.0 6.9879999999999995 24.57 1.722
96 32 2 0.0 7.146 25.554 2.137
97 33 3 0.0 10.112 24.134999999999998 2.024
98 33 1 0.0 11.418 24.57 1.722
99 33 2 0.0 11.575999999999999 25.554 2.137
100 34 3 0.0 14.542 24.134999999999998 2.024
101 34 1 0.0 15.847999999999999 24.57 1.722
102 34 2 0.0 16.006 25.554 2.137
103 35 3 0.0 18.971999999999998 24.134999999999998 2.024
104 35 1 0.0 20.278 24.57 1.722
105 35 2 0.0 20.436 25.554 2.137
106 36 3 0.0 23.401999999999997 24.134999999999998 2.024
107 36 1 0.0 24.708 24.57 1.722
108 36 2 0.0 24.866 25.554 2.137
109 37 3 0.0 1.252 1.985 6.454
110 37 1 0.0 2.558 2.42 6.151999999999999
111 37 2 0.0 2.716 3.404 6.567
112 38 3 0.0 5.6819999999999995 1.985 6.454
113 38 1 0.0 6.9879999999999995 2.42 6.151999999999999
114 38 2 0.0 7.146 3.404 6.567
115 39 3 0.0 10.112 1.985 6.454
116 39 1 0.0 11.418 2.42 6.151999999999999
117 39 2 0.0 11.575999999999999 3.404 6.567
118 40 3 0.0 14.542 1.985 6.454
119 40 1 0.0 15.847999999999999 2.42 6.151999999999999
120 40 2 0.0 16.006 3.404 6.567
121 41 3 0.0 18.971999999999998 1.985 6.454
122 41 1 0.0 20.278 2.42 6.151999999999999
123 41 2 0.0 20.436 3.404 6.567
124 42 3 0.0 23.401999999999997 1.985 6.454
125 42 1 0.0 24.708 2.42 6.151999999999999
126 42 2 0.0 24.866 3.404 6.567
127 43 3 0.0 1.252 6.415 6.454
128 43 1 0.0 2.558 6.85 6.151999999999999
129 43 2 0.0 2.716 7.834 6.567
130 44 3 0.0 5.6819999999999995 6.415 6.454
131 44 1 0.0 6.9879999999999995 6.85 6.151999999999999
132 44 2 0.0 7.146 7.834 6.567
133 45 3 0.0 10.112 6.415 6.454
134 45 1 0.0 11.418 6.85 6.151999999999999
135 45 2 0.0 11.575999999999999 7.834 6.567
136 46 3 0.0 14.542 6.415 6.454
137 46 1 0.0 15.847999999999999 6.85 6.151999999999999
138 46 2 0.0 16.006 7.834 6.567
139 47 3 0.0 18.971999999999998 6.415 6.454
140 47 1 0.0 20.278 6.85 6.151999999999999
141 47 2 0.0 20.436 7.834 6.567
142 48 3 0.0 23.401999999999997 6.415 6.454
143 48 1 0.0 24.708 6.85 6.151999999999999
144 48 2 0.0 24.866 7.834 6.567
145 49 3 0.0 1.252 10.844999999999999 6.454
146 49 1 0.0 2.558 11.28 6.151999999999999
147 49 2 0.0 2.716 12.264 6.567
148 50 3 0.0 5.6819999999999995 10.844999999999999 6.454
149 50 1 0.0 6.9879999999999995 11.28 6.151999999999999
150 50 2 0.0 7.146 12.264 6.567
151 51 3 0.0 10.112 10.844999999999999 6.454
152 51 1 0.0 11.418 11.28 6.151999999999999
153 51 2 0.0 11.575999999999999 12.264 6.567
154 52 3 0.0 14.542 10.844999999999999 6.454
155 52 1 0.0 15.847999999999999 11.28 6.151999999999999
156 52 2 0.0 16.006 12.264 6.567
157 53 3 0.0 18.971999999999998 10.844999999999999 6.454
158 53 1 0.0 20.278 11.28 6.151999999999999
159 53 2 0.0 20.436 12.264 6.567
160 54 3 0.0 23.401999999999997 10.844999999999999 6.454
161 54 1 0.0 24.708 11.28 6.151999999999999
162 54 2 0.0 24.866 12.264 6.567
163 55 3 0.0 1.252 15.274999999999999 6.454
164 55 1 0.0 2.558 15.709999999999999 6.151999999999999
165 55 2 0.0 2.716 16.694 6.567
166 56 3 0.0 5.6819999999999995 15.274999999999999 6.454
167 56 1 0.0 6.9879999999999995 15.709999999999999 6.151999999999999
168 56 2 0.0 7.146 16.694 6.567
169 57 3 0.0 10.112 15.274999999999999 6.454
170 57 1 0.0 11.418 15.709999999999999 6.151999999999999
171 57 2 0.0 11.575999999999999 16.694 6.567
172 58 3 0.0 14.542 15.274999999999999 6.454
173 58 1 0.0 15.847999999999999 15.709999999999999 6.151999999999999
174 58 2 0.0 16.006 16.694 6.567
175 59 3 0.0 18.971999999999998 15.274999999999999 6.454
176 59 1 0.0 20.278 15.709999999999999 6.151999999999999
177 59 2 0.0 20.436 16.694 6.567
178 60 3 0.0 23.401999999999997 15.274999999999999 6.454
179 60 1 0.0 24.708 15.709999999999999 6.151999999999999
180 60 2 0.0 24.866 16.694 6.567
181 61 3 0.0 1.252 19.705 6.454
182 61 1 0.0 2.558 20.14 6.151999999999999
183 61 2 0.0 2.716 21.124 6.567
184 62 3 0.0 5.6819999999999995 19.705 6.454
185 62 1 0.0 6.9879999999999995 20.14 6.151999999999999
186 62 2 0.0 7.146 21.124 6.567
187 63 3 0.0 10.112 19.705 6.454
188 63 1 0.0 11.418 20.14 6.151999999999999
189 63 2 0.0 11.575999999999999 21.124 6.567
190 64 3 0.0 14.542 19.705 6.454
191 64 1 0.0 15.847999999999999 20.14 6.151999999999999
192 64 2 0.0 16.006 21.124 6.567
193 65 3 0.0 18.971999999999998 19.705 6.454
194 65 1 0.0 20.278 20.14 6.151999999999999
195 65 2 0.0 20.436 21.124 6.567
196 66 3 0.0 23.401999999999997 19.705 6.454
197 66 1 0.0 24.708 20.14 6.151999999999999
198 66 2 0.0 24.866 21.124 6.567
199 67 3 0.0 1.252 24.134999999999998 6.454
200 67 1 0.0 2.558 24.57 6.151999999999999
201 67 2 0.0 2.716 25.554 6.567
202 68 3 0.0 5.6819999999999995 24.134999999999998 6.454
203 68 1 0.0 6.9879999999999995 24.57 6.151999999999999
204 68 2 0.0 7.146 25.554 6.567
205 69 3 0.0 10.112 24.134999999999998 6.454
206 69 1 0.0 11.418 24.57 6.151999999999999
207 69 2 0.0 11.575999999999999 25.554 6.567
208 70 3 0.0 14.542 24.134999999999998 6.454
209 70 1 0.0 15.847999999999999 24.57 6.151999999999999
210 70 2 0.0 16.006 25.554 6.567
211 71 3 0.0 18.971999999999998 24.134999999999998 6.454
212 71 1 0.0 20.278 24.57 6.151999999999999
213 71 2 0.0 20.436 25.554 6.567
214 72 3 0.0 23.401999999999997 24.134999999999998 6.454
215 72 1 0.0 24.708 24.57 6.151999999999999
216 72 2 0.0 24.866 25.554 6.567
217 73 3 0.0 1.252 1.985 10.883999999999999
218 73 1 0.0 2.558 2.42 10.581999999999999
219 73 2 0.0 2.716 3.404 10.997
220 74 3 0.0 5.6819999999999995 1.985 10.883999999999999
221 74 1 0.0 6.9879999999999995 2.42 10.581999999999999
222 74 2 0.0 7.146 3.404 10.997
223 75 3 0.0 10.112 1.985 10.883999999999999
224 75 1 0.0 11.418 2.42 10.581999999999999
225 75 2 0.0 11.575999999999999 3.404 10.997
226 76 3 0.0 14.542 1.985 10.883999999999999
227 76 1 0.0 15.847999999999999 2.42 10.581999999999999
228 76 2 0.0 16.006 3.404 10.997
229 77 3 0.0 18.971999999999998 1.985 10.883999999999999
230 77 1 0.0 20.278 2.42 10.581999999999999
231 77 2 0.0 20.436 3.404 10.997
232 78 3 0.0 23.401999999999997 1.985 10.883999999999999
233 78 1 0.0 24.708 2.42 10.581999999999999
234 78 2 0.0 24.866 3.404 10.997
235 79 3 0.0 1.252 6.415 10.883999999999999
236 79 1 0.0 2.558 6.85 10.581999999999999
237 79 2 0.0 2.716 7.834 10.997
238 80 3 0.0 5.6819999999999995 6.415 10.883999999999999
239 80 1 0.0 6.9879999999999995 6.85 10.581999999999999
240 80 2 0.0 7.146 7.834 10.997
241 81 3 0.0 10.112 6.415 10.883999999999999
242 81 1 0.0 11.418 6.85 10.581999999999999
243 81 2 0.0 11.575999999999999 7.834 10.997
244 82 3 0.0 14.542 6.415 10.883999999999999
245 82 1 0.0 15.847999999999999 6.85 10.581999999999999
246 82 2 0.0 16.006 7.834 10.997
247 83 3 0.0 18.971999999999998 6.415 10.883999999999999
248 83 1 0.0 20.278 6.85 10.581999999999999
249 83 2 0.0 20.436 7.834 10.997
250 84 3 0.0 23.401999999999997 6.415 10.883999999999999
251 84 1 0.0 24.708 6.85 10.581999999999999
252 84 2 0.0 24.866 7.834 10.997
253 85 3 0.0 1.252 10.844999999999999 10.883999999999999
254 85 1 0.0 2.558 11.28 10.581999999999999
255 85 2 0.0 2.716 12.264 10.997
256 86 3 0.0 5.6819999999999995 10.844999999999999 10.883999999999999
257 86 1 0.0 6.9879999999999995 11.28 10.581999999999999
258 86 2 0.0 7.146 12.264 10.997
259 87 3 0.0 10.112 10.844999999999999 10.883999999999999
260 87 1 0.0 11.418 11.28 10.581999999999999
261 87 2 0.0 11.575999999999999 12.264 10.997
262 88 3 0.0 14.542 10.844999999999999 10.883999999999999
263 88 1 0.0 15.847999999999999 11.28 10.581999999999999
264 88 2 0.0 16.006 12.264 10.997
265 89 3 0.0 18.971999999999998 10.844999999999999 10.883999999999999
266 89 1 0.0 20.278 11.28 10.581999999999999
267 89 2 0.0 20.436 12.264 10.997
268 90 3 0.0 23.401999999999997 10.844999999999999 10.883999999999999
269 90 1 0.0 24.708 11.28 10.581999999999999
270 90 2 0.0 24.866 12.264 10.997
271 91 3 0.0 1.252 15.274999999999999 10.883999999999999
272 91 1 0.0 2.558 15.709999999999999 10.581999999999999
273 91 2 0.0 2.716 16.694 10.997
274 92 3 0.0 5.6819999999999995 15.274999999999999 10.883999999999999
275 92 1 0.0 6.9879999999999995 15.709999999999999 10.581999999999999
276 92 2 0.0 7.146 16.694 10.997
277 93 3 0.0 10.112 15.274999999999999 10.883999999999999
278 93 1 0.0 11.418 15.709999999999999 10.581999999999999
279 93 2 0.0 11.575999999999999 16.694 10.997
280 94 3 0.0 14.542 15.274999999999999 10.883999999999999
281 94 1 0.0 15.847999999999999 15.709999999999999 10.581999999999999
282 94 2 0.0 16.006 16.694 10.997
283 95 3 0.0 18.971999999999998 15.274999999999999 10.883999999999999
284 95 1 0.0 20.278 15.709999999999999 10.581999999999999
285 95 2 0.0 20.436 16.694 10.997
286 96 3 0.0 23.401999999999997 15.274999999999999 10.883999999999999
287 96 1 0.0 24.708 15.709999999999999 10.581999999999999
288 96 2 0.0 24.866 16.694 10.997
289 97 3 0.0 1.252 19.705 10.883999999999999
290 97 1 0.0 2.558 20.14 10.581999999999999
291 97 2 0.0 2.716 21.124 10.997
292 98 3 0.0 5.6819999999999995 19.705 10.883999999999999
293 98 1 0.0 6.9879999999999995 20.14 10.581999999999999
294 98 2 0.0 7.146 21.124 10.997
295 99 3 0.0 10.112 19.705 10.883999999999999
296 99 1 0.0 11.418 20.14 10.581999999999999
297 99 2 0.0 11.575999999999999 21.124 10.997
298 100 3 0.0 14.542 19.705 10.883999999999999
299 100 1 0.0 15.847999999999999 20.14 10.581999999999999
300 100 2 0.0 16.006 21.124 10.997
301 101 3 0.0 18.971999999999998 19.705 10.883999999999999
302 101 1 0.0 20.278 20.14 10.581999999999999
303 101 2 0.0 20.436 21.124 10.997
304 102 3 0.0 23.401999999999997 19.705 10.883999999999999
305 102 1 0.0 24.708 20.14 10.581999999999999
306 102 2 0.0 24.866 21.124 10.997
307 103 3 0.0 1.252 24.134999999999998 10.883999999999999
308 103 1 0.0 2.558 24.57 10.581999999999999
309 103 2 0.0 2.716 25.554 10.997
310 104 3 0.0 5.6819999999999995 24.134999999999998 10.883999999999999
311 104 1 0.0 6.9879999999999995 24.57 10.581999999999999
312 104 2 0.0 7.146 25.554 10.997
313 105 3 0.0 10.112 24.134999999999998 10.883999999999999
314 105 1 0.0 11.418 24.57 10.581999999999999
315 105 2 0.0 11.575999999999999 25.554 10.997
316 106 3 0.0 14.542 24.134999999999998 10.883999999999999
317 106 1 0.0 15.847999999999999 24.57 10.581999999999999
318 106 2 0.0 16.006 25.554 10.997
319 107 3 0.0 18.971999999999998 24.134999999999998 10.883999999999999
320 107 1 0.0 20.278 24.57 10.581999999999999
321 107 2 0.0 20.436 25.554 10.997
322 108 3 0.0 23.401999999999997 24.134999999999998 10.883999999999999
323 108 1 0.0 24.708 24.57 10.581999999999999
324 108 2 0.0 24.866 25.554 10.997
325 109 3 0.0 1.252 1.985 15.313999999999998
326 109 1 0.0 2.558 2.42 15.011999999999999
327 109 2 0.0 2.716 3.404 15.427
328 110 3 0.0 5.6819999999999995 1.985 15.313999999999998
329 110 1 0.0 6.9879999999999995 2.42 15.011999999999999
330 110 2 0.0 7.146 3.404 15.427
331 111 3 0.0 10.112 1.985 15.313999999999998
332 111 1 0.0 11.418 2.42 15.011999999999999
333 111 2 0.0 11.575999999999999 3.404 15.427
334 112 3 0.0 14.542 1.985 15.313999999999998
335 112 1 0.0 15.847999999999999 2.42 15.011999999999999
336 112 2 0.0 16.006 3.404 15.427
337 113 3 0.0 18.971999999999998 1.985 15.313999999999998
338 113 1 0.0 20.278 2.42 15.011999999999999
339 113 2 0.0 20.436 3.404 15.427
340 114 3 0.0 23.401999999999997 1.985 15.313999999999998
341 114 1 0.0 24.708 2.42 15.011999999999999
342 114 2 0.0 24.866 3.404 15.427
343 115 3 0.0 1.252 6.415 15.313999999999998
344 115 1 0.0 2.558 6.85 15.011999999999999
345 115 2 0.0 2.716 7.834 15.427
346 116 3 0.0 5.6819999999999995 6.415 15.313999999999998
347 116 1 0.0 6.9879999999999995 6.85 15.011999999999999
348 116 2 0.0 7.146 7.834 15.427
349 117 3 0.0 10.112 6.415 15.313999999999998
350 117 1 0.0 11.418 6.85 15.011999999999999
351 117 2 0.0 11.575999999999999 7.834 15.427
352 118 3 0.0 14.542 6.415 15.313999999999998
353 118 1 0.0 15.847999999999999 6.85 15.011999999999999
354 118 2 0.0 16.006 7.834 15.427
355 119 3 0.0 18.971999999999998 6.415 15.313999999999998
356 119 1 0.0 20.278 6.85 15.011999999999999
357 119 2 0.0 20.436 7.834 15.427
358 120 3 0.0 23.401999999999997 6.415 15.313999999999998
359 120 1 0.0 24.708 6.85 15.011999999999999
360 120 2 0.0 24.866 7.834 15.427
361 121 3 0.0 1.252 10.844999999999999 15.313999999999998
362 121 1 0.0 2.558 11.28 15.011999999999999
363 121 2 0.0 2.716 12.264 15.427
364 122 3 0.0 5.6819999999999995 10.844999999999999 15.313999999999998
365 122 1 0.0 6.9879999999999995 11.28 15.011999999999999
366 122 2 0.0 7.146 12.264 15.427
367 123 3 0.0 10.112 10.844999999999999 15.313999999999998
368 123 1 0.0 11.418 11.28 15.011999999999999
369 123 2 0.0 11.575999999999999 12.264 15.427
370 124 3 0.0 14.542 10.844999999999999 15.313999999999998
371 124 1 0.0 15.847999999999999 11.28 15.011999999999999
372 124 2 0.0 16.006 12.264 15.427
373 125 3 0.0 18.971999999999998 10.844999999999999 15.313999999999998
374 125 1 0.0 20.278 11.28 15.011999999999999
375 125 2 0.0 20.436 12.264 15.427
376 126 3 0.0 23.401999999999997 10.844999999999999 15.313999999999998
377 126 1 0.0 24.708 11.28 15.011999999999999
378 126 2 0.0 24.866 12.264 15.427
379 127 3 0.0 1.252 15.274999999999999 15.313999999999998
380 127 1 0.0 2.558 15.709999999999999 15.011999999999999
381 127 2 0.0 2.716 16.694 15.427
382 128 3 0.0 5.6819999999999995 15.274999999999999 15.313999999999998
383 128 1 0.0 6.9879999999999995 15.709999999999999 15.011999999999999
384 128 2 0.0 7.146 16.694 15.427
385 129 3 0.0 10.112 15.274999999999999 15.313999999999998
386 129 1 0.0 11.418 15.709999999999999 15.011999999999999
387 129 2 0.0 11.575999999999999 16.694 15.427
388 130 3 0.0 14.542 15.274999999999999 15.313999999999998
389 130 1 0.0 15.847999999999999 15.709999999999999 15.011999999999999
390 130 2 0.0 16.006 16.694 15.427
391 131 3 0.0 18.971999999999998 15.274999999999999 15.313999999999998
392 131 1 0.0 20.278 15.709999999999999 15.011999999999999
393 131 2 0.0 20.436 16.694 15.427
394 132 3 0.0 23.401999999999997 15.274999999999999 15.313999999999998
395 132 1 0.0 24.708 15.709999999999999 15.011999999999999
396 132 2 0.0 24.866 16.694 15.427
397 133 3 0.0 1.252 19.705 15.313999999999998
398 133 1 0.0 2.558 20.14 15.011999999999999
399 133 2 0.0 2.716 21.124 15.427
400 134 3 0.0 5.6819999999999995 19.705 15.313999999999998
401 134 1 0.0 6.9879999999999995 20.14 15.011999999999999
402 134 2 0.0 7.146 21.124 15.427
403 135 3 0.0 10.112 19.705 15.313999999999998
404 135 1 0.0 11.418 20.14 15.011999999999999
405 135 2 0.0 11.575999999999999 21.124 15.427
406 136 3 0.0 14.542 19.705 15.313999999999998
407 136 1 0.0 15.847999999999999 20.14 15.011999999999999
408 136 2 0.0 16.006 21.124 15.427
409 137 3 0.0 18.971999999999998 19.705 15.313999999999998
410 137 1 0.0 20.278 20.14 15.011999999999999
411 137 2 0.0 20.436 21.124 15.427
412 138 3 0.0 23.401999999999997 19.705 15.313999999999998
413 138 1 0.0 24.708 20.14 15.011999999999999
414 138 2 0.0 24.866 21.124 15.427
415 139 3 0.0 1.252 24.134999999999998 15.313999999999998
416 139 1 0.0 2.558 24.57 15.011999999999999
417 139 2 0.0 2.716 25.554 15.427
418 140 3 0.0 5.6819999999999995 24.134999999999998 15.313999999999998
419 140 1 0.0 6.9879999999999995 24.57 15.011999999999999
420 140 2 0.0 7.146 25.554 15.427
421 141 3 0.0 10.112 24.134999999999998 15.313999999999998
422 141 1 0.0 11.418 24.57 15.011999999999999
423 141 2 0.0 11.575999999999999 25.554 15.427
424 142 3 0.0 14.542 24.134999999999998 15.313999999999998
425 142 1 0.0 15.847999999999999 24.57 15.011999999999999
426 142 2 0.0 16.006 25.554 15.427
427 143 3 0.0 18.971999999999998 24.134999999999998 15.313999999999998
428 143 1 0.0 20.278 24.57 15.011999999999999
429 143 2 0.0 20.436 25.554 15.427
430 144 3 0.0 23.401999999999997 24.134999999999998 15.313999999999998
431 144 1 0.0 24.708 24.57 15.011999999999999
432 144 2 0.0 24.866 25.554 15.427
433 145 3 0.0 1.252 1.985 19.744
434 145 1 0.0 2.558 2.42 19.442
435 145 2 0.0 2.716 3.404 19.857
436 146 3 0.0 5.6819999999999995 1.985 19.744
437 146 1 0.0 6.9879999999999995 2.42 19.442
438 146 2 0.0 7.146 3.404 19.857
439 147 3 0.0 10.112 1.985 19.744
440 147 1 0.0 11.418 2.42 19.442
441 147 2 0.0 11.575999999999999 3.404 19.857
442 148 3 0.0 14.542 1.985 19.744
443 148 1 0.0 15.847999999999999 2.42 19.442
444 148 2 0.0 16.006 3.404 19.857
445 149 3 0.0 18.971999999999998 1.985 19.744
446 149 1 0.0 20.278 2.42 19.442
447 149 2 0.0 20.436 3.404 19.857
448 150 3 0.0 23.401999999999997 1.985 19.744
449 150 1 0.0 24.708 2.42 19.442
450 150 2 0.0 24.866 3.404 19.857
451 151 3 0.0 1.252 6.415 19.744
452 151 1 0.0 2.558 6.85 19.442
453 151 2 0.0 2.716 7.834 19.857
454 152 3 0.0 5.6819999999999995 6.415 19.744
455 152 1 0.0 6.9879999999999995 6.85 19.442
456 152 2 0.0 7.146 7.834 19.857
457 153 3 0.0 10.112 6.415 19.744
458 153 1 0.0 11.418 6.85 19.442
459 153 2 0.0 11.575999999999999 7.834 19.857
460 154 3 0.0 14.542 6.415 19.744
461 154 1 0.0 15.847999999999999 6.85 19.442
462 154 2 0.0 16.006 7.834 19.857
463 155 3 0.0 18.971999999999998 6.415 19.744
464 155 1 0.0 20.278 6.85 19.442
465 155 2 0.0 20.436 7.834 19.857
466 156 3 0.0 23.401999999999997 6.415 19.744
467 156 1 0.0 24.708 6.85 19.442
468 156 2 0.0 24.866 7.834 19.857
469 157 3 0.0 1.252 10.844999999999999 19.744
470 157 1 0.0 2.558 11.28 19.442
471 157 2 0.0 2.716 12.264 19.857
472 158 3 0.0 5.6819999999999995 10.844999999999999 19.744
473 158 1 0.0 6.9879999999999995 11.28 19.442
474 158 2 0.0 7.146 12.264 19.857
475 159 3 0.0 10.112 10.844999999999999 19.744
476 159 1 0.0 11.418 11.28 19.442
477 159 2 0.0 11.575999999999999 12.264 19.857
478 160 3 0.0 14.542 10.844999999999999 19.744
479 160 1 0.0 15.847999999999999 11.28 19.442
480 160 2 0.0 16.006 12.264 19.857
481 161 3 0.0 18.971999999999998 10.844999999999999 19.744
482 161 1 0.0 20.278 11.28 19.442
483 161 2 0.0 20.436 12.264 19.857
484 162 3 0.0 23.401999999999997 10.844999999999999 19.744
485 162 1 0.0 24.708 11.28 19.442
486 162 2 0.0 24.866 12.264 19.857
487 163 3 0.0 1.252 15.274999999999999 19.744
488 163 1 0.0 2.558 15.709999999999999 19.442
489 163 2 0.0 2.716 16.694 19.857
490 164 3 0.0 5.6819999999999995 15.274999999999999 19.744
491 164 1 0.0 6.9879999999999995 15.709999999999999 19.442
492 164 2 0.0 7.146 16.694 19.857
493 165 3 0.0 10.112 15.274999999999999 19.744
494 165 1 0.0 11.418 15.709999999999999 19.442
495 165 2 0.0 11.575999999999999 16.694 19.857
496 166 3 0.0 14.542 15.274999999999999 19.744
497 166 1 0.0 15.847999999999999 15.709999999999999 19.442
498 166 2 0.0 16.006 16.694 19.857
499 167 3 0.0 18.971999999999998 15.274999999999999 19.744
500 167 1 0.0 20.278 15.709999999999999 19.442
501 167 2 0.0 20.436 16.694 19.857
502 168 3 0.0 23.401999999999997 15.274999999999999 19.744
503 168 1 0.0 24.708 15.709999999999999 19.442
504 168 2 0.0 24.866 16.694 19.857
505 169 3 0.0 1.252 19.705 19.744
506 169 1 0.0 2.558 20.14 19.442
507 169 2 0.0 2.716 21.124 19.857
508 170 3 0.0 5.6819999999999995 19.705 19.744
509 170 1 0.0 6.9879999999999995 20.14 19.442
510 170 2 0.0 7.146 21.124 19.857
511 171 3 0.0 10.112 19.705 19.744
512 171 1 0.0 11.418 20.14 19.442
513 171 2 0.0 11.575999999999999 21.124 19.857
514 172 3 0.0 14.542 19.705 19.744
515 172 1 0.0 15.847999999999999 20.14 19.442
516 172 2 0.0 16.006 21.124 19.857
517 173 3 0.0 18.971999999999998 19.705 19.744
518 173 1 0.0 20.278 20.14 19.442
519 173 2 0.0 20.436 21.124 19.857
520 174 3 0.0 23.401999999999997 19.705 19.744
521 174 1 0.0 24.708 20.14 19.442
522 174 2 0.0 24.866 21.124 19.857
523 175 3 0.0 1.252 24.134999999999998 19.744
524 175 1 0.0 2.558 24.57 19.442
525 175 2 0.0 2.716 25.554 19.857
526 176 3 0.0 5.6819999999999995 24.134999999999998 19.744
527 176 1 0.0 6.9879999999999995 24.57 19.442
528 176 2 0.0 7.146 25.554 19.857
529 177 3 0.0 10.112 24.134999999999998 19.744
530 177 1 0.0 11.418 24.57 19.442
531 177 2 0.0 11.575999999999999 25.554 19.857
532 178 3 0.0 14.542 24.134999999999998 19.744
533 178 1 0.0 15.847999999999999 24.57 19.442
534 178 2 0.0 16.006 25.554 19.857
535 179 3 0.0 18.971999999999998 24.134999999999998 19.744
536 179 1 0.0 20.278 24.57 19.442
537 179 2 0.0 20.436 25.554 19.857
538 180 3 0.0 23.401999999999997 24.134999999999998 19.744
539 180 1 0.0 24.708 24.57 19.442
540 180 2 0.0 24.866 25.554 19.857
541 181 3 0.0 1.252 1.985 24.174
542 181 1 0.0 2.558 2.42 23.872
543 181 2 0.0 2.716 3.404 24.287
544 182 3 0.0 5.6819999999999995 1.985 24.174
545 182 1 0.0 6.9879999999999995 2.42 23.872
546 182 2 0.0 7.146 3.404 24.287
547 183 3 0.0 10.112 1.985 24.174
548 183 1 0.0 11.418 2.42 23.872
549 183 2 0.0 11.575999999999999 3.404 24.287
550 184 3 0.0 14.542 1.985 24.174
551 184 1 0.0 15.847999999999999 2.42 23.872
552 184 2 0.0 16.006 3.404 24.287
553 185 3 0.0 18.971999999999998 1.985 24.174
554 185 1 0.0 20.278 2.42 23.872
555 185 2 0.0 20.436 3.404 24.287
556 186 3 0.0 23.401999999999997 1.985 24.174
557 186 1 0.0 24.708 2.42 23.872
558 186 2 0.0 24.866 3.404 24.287
559 187 3 0.0 1.252 6.415 24.174
560 187 1 0.0 2.558 6.85 23.872
561 187 2 0.0 2.716 7.834 24.287
562 188 3 0.0 5.6819999999999995 6.415 24.174
563 188 1 0.0 6.9879999999999995 6.85 23.872
564 188 2 0.0 7.146 7.834 24.287
565 189 3 0.0 10.112 6.415 24.174
566 189 1 0.0 11.418 6.85 23.872
567 189 2 0.0 11.575999999999999 7.834 24.287
568 190 3 0.0 14.542 6.415 24.174
569 190 1 0.0 15.847999999999999 6.85 23.872
570 190 2 0.0 16.006 7.834 24.287
571 191 3 0.0 18.971999999999998 6.415 24.174
572 191 1 0.0 20.278 6.85 23.872
573 191 2 0.0 20.436 7.834 24.287
574 192 3 0.0 23.401999999999997 6.415 24.174
575 192 1 0.0 24.708 6.85 23.872
576 192 2 0.0 24.866 7.834 24.287
577 193 3 0.0 1.252 10.844999999999999 24.174
578 193 1 0.0 2.558 11.28 23.872
579 193 2 0.0 2.716 12.264 24.287
580 194 3 0.0 5.6819999999999995 10.844999999999999 24.174
581 194 1 0.0 6.9879999999999995 11.28 23.872
582 194 2 0.0 7.146 12.264 24.287
583 195 3 0.0 10.112 10.844999999999999 24.174
584 195 1 0.0 11.418 11.28 23.872
585 195 2 0.0 11.575999999999999 12.264 24.287
586 196 3 0.0 14.542 10.844999999999999 24.174
587 196 1 0.0 15.847999999999999 11.28 23.872
588 196 2 0.0 16.006 12.264 24.287
589 197 3 0.0 18.971999999999998 10.844999999999999 24.174
590 197 1 0.0 20.278 11.28 23.872
591 197 2 0.0 20.436 12.264 24.287
592 198 3 0.0 23.401999999999997 10.844999999999999 24.174
593 198 1 0.0 24.708 11.28 23.872
594 198 2 0.0 24.866 12.264 24.287
595 199 3 0.0 1.252 15.274999999999999 24.174
596 199 1 0.0 2.558 15.709999999999999 23.872
597 199 2 0.0 2.716 16.694 24.287
598 200 3 0.0 5.6819999999999995 15.274999999999999 24.174
599 200 1 0.0 6.9879999999999995 15.709999999999999 23.872
600 200 2 0.0 7.146 16.694 24.287
601 201 3 0.0 10.112 15.274999999999999 24.174
602 201 1 0.0 11.418 15.709999999999999 23.872
603 201 2 0.0 11.575999999999999 16.694 24.287
604 202 3 0.0 14.542 15.274999999999999 24.174
605 202 1 0.0 15.847999999999999 15.709999999999999 23.872
606 202 2 0.0 16.006 16.694 24.287
607 203 3 0.0 18.971999999999998 15.274999999999999 24.174
608 203 1 0.0 20.278 15.709999999999999 23.872
609 203 2 0.0 20.436 16.694 24.287
610 204 3 0.0 23.401999999999997 15.274999999999999 24.174
611 204 1 0.0 24.708 15.709999999999999 23.872
612 204 2 0.0 24.866 16.694 24.287
613 205 3 0.0 1.252 19.705 24.174
614 205 1 0.0 2.558 20.14 23.872
615 205 2 0.0 2.716 21.124 24.287
616 206 3 0.0 5.6819999999999995 19.705 24.174
617 206 1 0.0 6.9879999999999995 20.14 23.872
618 206 2 0.0 7.146 21.124 24.287
619 207 3 0.0 10.112 19.705 24.174
620 207 1 0.0 11.418 20.14 23.872
621 207 2 0.0 11.575999999999999 21.124 24.287
622 208 3 0.0 14.542 19.705 24.174
623 208 1 0.0 15.847999999999999 20.14 23.872
624 208 2 0.0 16.006 21.124 24.287
625 209 3 0.0 18.971999999999998 19.705 24.174
626 209 1 0.0 20.278 20.14 23.872
627 209 2 0.0 20.436 21.124 24.287
628 210 3 0.0 23.401999999999997 19.705 24.174
629 210 1 0.0 24.708 20.14 23.872
630 210 2 0.0 24.866 21.124 24.287
631 211 3 0.0 1.252 24.134999999999998 24.174
632 211 1 0.0 2.558 24.57 23.872
633 211 2 0.0 2.716 25.554 24.287
634 212 3 0.0 5.6819999999999995 24.134999999999998 24.174
635 212 1 0.0 6.9879999999999995 24.57 23.872
636 212 2 0.0 7.146 25.554 24.287
637 213 3 0.0 10.112 24.134999999999998 24.174
638 213 1 0.0 11.418 24.57 23.872
639 213 2 0.0 11.575999999999999 25.554 24.287
640 214 3 0.0 14.542 24.134999999999998 24.174
641 214 1 0.0 15.847999999999999 24.57 23.872
642 214 2 0.0 16.006 25.554 24.287
643 215 3 0.0 18.971999999999998 24.134999999999998 24.174
644 215 1 0.0 20.278 24.57 23.872
645 215 2 0.0 20.436 25.554 24.287
646 216 3 0.0 23.401999999999997 24.134999999999998 24.174
647 216 1 0.0 24.708 24.57 23.872
648 216 2 0.0 24.866 25.554 24.287

Bonds

1 1 1 2
2 2 2 3
3 1 4 5
4 2 5 6
5 1 7 8
6 2 8 9
7 1 10 11
8 2 11 12
9 1 13 14
10 2 14 15
11 1 16 17
12 2 17 18
13 1 19 20
14 2 20 21
15 1 22 23
16 2 23 24
17 1 25 26
18 2 26 27
19 1 28 29
20 2 29 30
21 1 31 32
22 2 32 33
23 1 34 35
24 2 35 36
25 1 37 38
26 2 38 39
27 1 40 41
28 2 41 42
29 1 43 44
30 2 44 45
31 1 46 47
32 2 47 48
33 1 49 50
34 2 50 51
35 1 52 53
36 2 53 54
37 1 55 56
38 2 56 57
39 1 58 59
40 2 59 60
41 1 61 62
42 2 62 63
43 1 64 65
44 2 65 66
45 1 67 68
46 2 68 69
47 1 70 71
48 2 71 72
49 1 73 74
50 2 74 75
51 1 76 77
52 2 77 78
53 1 79 80
54 2 80 81
55 1 82 83
56 2 83 84
57 1 85 86
58 2 86 87
59 1 88 89
60 2 89 90
61 1 91 92
62 2 92 93
63 1 94 95
64 2 95 96
65 1 97 98
66 2 98 99
67 1 100 101
68 2 101 102
69 1 103 104
70 2 104 105
71 1 106 107
72 2 107 108
73 1 109 110
74 2 110 111
75 1 112 113
76 2 113 114
77 1 115 116
78 2 116 117
79 1 118 119
80 2 119 120
81 1 121 122
82 2 122 123
83 1 124 125
84 2 125 126
85 1 127 128
86 2 128 129
87 1 130 131
88 2 131 132
89 1 133 134
90 2 134 135
91 1 136 137
92 2 137 138
93 1 139 140
94 2 140 141
95 1 142 143
96 2 143 144
97 1 145 146
98 2 146 147
99 1 148 149
100 2 149 150
101 1 151 152
102 2 152 153
103 1 154 155
104 2 155 156
105 1 157 158
106 2 158 159
107 1 160 161
108 2 161 162
109 1 163 164
110 2 164 165
111 1 166 167
112 2 167 168
113 1 169 170
114 2 170 171
115 1 172 173
116 2 173 174
117 1 175 176
118 2 176 177
119 1 178 179
120 2 179 180
121 1 181 182
122 2 182 183
123 1 184 185
124 2 185 186
125 1 187 188
126 2 188 189
127 1 190 191
128 2 191 192
129 1 193 194
130 2 194 195
131 1 196 197
132 2 197 198